 Entering Gaussian System, Link 0=g16
 Input=TPABTDPHCOOH.com
 Output=TPABTDPHCOOH.log
 Initial command:
 /home/programs/g16/l1.exe "/tmp/Gau-585583.inp" -scrdir="/tmp/"
 Entering Link 1 = /home/programs/g16/l1.exe PID=    585585.
  
 Copyright (c) 1988-2017, Gaussian, Inc.  All Rights Reserved.
  
 This is part of the Gaussian(R) 16 program.  It is based on
 the Gaussian(R) 09 system (copyright 2009, Gaussian, Inc.),
 the Gaussian(R) 03 system (copyright 2003, Gaussian, Inc.),
 the Gaussian(R) 98 system (copyright 1998, Gaussian, Inc.),
 the Gaussian(R) 94 system (copyright 1995, Gaussian, Inc.),
 the Gaussian 92(TM) system (copyright 1992, Gaussian, Inc.),
 the Gaussian 90(TM) system (copyright 1990, Gaussian, Inc.),
 the Gaussian 88(TM) system (copyright 1988, Gaussian, Inc.),
 the Gaussian 86(TM) system (copyright 1986, Carnegie Mellon
 University), and the Gaussian 82(TM) system (copyright 1983,
 Carnegie Mellon University). Gaussian is a federally registered
 trademark of Gaussian, Inc.
  
 This software contains proprietary and confidential information,
 including trade secrets, belonging to Gaussian, Inc.
  
 This software is provided under written license and may be
 used, copied, transmitted, or stored only in accord with that
 written license.
  
 The following legend is applicable only to US Government
 contracts under FAR:
  
                    RESTRICTED RIGHTS LEGEND
  
 Use, reproduction and disclosure by the US Government is
 subject to restrictions as set forth in subparagraphs (a)
 and (c) of the Commercial Computer Software - Restricted
 Rights clause in FAR 52.227-19.
  
 Gaussian, Inc.
 340 Quinnipiac St., Bldg. 40, Wallingford CT 06492
  
  
 ---------------------------------------------------------------
 Warning -- This program may not be used in any manner that
 competes with the business of Gaussian, Inc. or will provide
 assistance to any competitor of Gaussian, Inc.  The licensee
 of this program is prohibited from giving any competitor of
 Gaussian, Inc. access to this program.  By using this program,
 the user acknowledges that Gaussian, Inc. is engaged in the
 business of creating and licensing software in the field of
 computational chemistry and represents and warrants to the
 licensee that it is not a competitor of Gaussian, Inc. and that
 it will not use this program in any manner prohibited above.
 ---------------------------------------------------------------
  

 Cite this work as:
 Gaussian 16, Revision B.01,
 M. J. Frisch, G. W. Trucks, H. B. Schlegel, G. E. Scuseria, 
 M. A. Robb, J. R. Cheeseman, G. Scalmani, V. Barone, 
 G. A. Petersson, H. Nakatsuji, X. Li, M. Caricato, A. V. Marenich, 
 J. Bloino, B. G. Janesko, R. Gomperts, B. Mennucci, H. P. Hratchian, 
 J. V. Ortiz, A. F. Izmaylov, J. L. Sonnenberg, D. Williams-Young, 
 F. Ding, F. Lipparini, F. Egidi, J. Goings, B. Peng, A. Petrone, 
 T. Henderson, D. Ranasinghe, V. G. Zakrzewski, J. Gao, N. Rega, 
 G. Zheng, W. Liang, M. Hada, M. Ehara, K. Toyota, R. Fukuda, 
 J. Hasegawa, M. Ishida, T. Nakajima, Y. Honda, O. Kitao, H. Nakai, 
 T. Vreven, K. Throssell, J. A. Montgomery, Jr., J. E. Peralta, 
 F. Ogliaro, M. J. Bearpark, J. J. Heyd, E. N. Brothers, K. N. Kudin, 
 V. N. Staroverov, T. A. Keith, R. Kobayashi, J. Normand, 
 K. Raghavachari, A. P. Rendell, J. C. Burant, S. S. Iyengar, 
 J. Tomasi, M. Cossi, J. M. Millam, M. Klene, C. Adamo, R. Cammi, 
 J. W. Ochterski, R. L. Martin, K. Morokuma, O. Farkas, 
 J. B. Foresman, and D. J. Fox, Gaussian, Inc., Wallingford CT, 2016.
 
 ******************************************
 Gaussian 16:  EM64L-G16RevB.01 20-Dec-2017
                30-Apr-2026 
 ******************************************
 %chk=mol_opt_s1.chk
 %nproc=15
 Will use up to   15 processors via shared memory.
 %mem=50GB
 ----------------------------------------------------------------------
 # lc-whpbe/6-31+G(d,p) iop(3/108=0174900000) iop(3/107=0174900000) opt
  td
 ----------------------------------------------------------------------
 1/18=20,19=15,26=3,38=1/1,3;
 2/9=110,12=2,17=6,18=5,40=1/2;
 3/5=1,6=6,7=111,11=9,25=1,30=1,71=1,74=-71,107=174900000,108=174900000/1,2,3,8;
 4//1;
 5/5=2,38=5/2;
 8/6=1,10=2/1;
 9/15=2,42=1,70=2/14;
 10/5=4/2;
 6/7=2,8=2,9=2,10=2/1;
 7/12=6,13=5/1,2,3,16;
 1/18=20,19=15,26=3/3(2);
 2/9=110/2;
 99//99;
 2/9=110/2;
 3/5=1,6=6,7=111,11=9,25=1,30=1,71=1,74=-71,107=174900000,108=174900000/1,2,3,8;
 4/5=5,16=3,69=1/1;
 5/5=2,38=5/2;
 8/6=1,10=2/1;
 9/15=2,42=1,49=4,70=2/14;
 10/5=4/2;
 7/12=6,13=5/1,2,3,16;
 1/18=20,19=15,26=3/3(-8);
 2/9=110/2;
 6/7=2,8=2,9=2,10=2/1;
 99/9=10/99;
 -----
 tdOPT
 -----
 Symbolic Z-matrix:
 Charge =  0 Multiplicity = 1
 8                     9.97825  -1.74307   0.70069 
 6                     9.48352  -0.73401  -0.07475 
 8                     10.21605  -0.0058   -0.73049 
 6                     7.99907  -0.63468  -0.02608 
 6                     7.21463  -1.50596   0.74755 
 6                     5.82593  -1.36934   0.75579 
 6                     5.1896   -0.36773  -0.00514 
 6                     5.98857   0.50833  -0.76737 
 6                     7.37624   0.37269  -0.78066 
 6                     3.70803  -0.27308  -0.01042 
 6                     2.90807  -1.40265  -0.03131 
 6                     1.48396  -1.35277  -0.01938 
 6                     0.76421  -0.16915   0.0063 
 6                    -0.7173   -0.15605  -0.00625 
 6                    -1.42841  -1.10058  -0.77319 
 6                    -2.82231  -1.13188  -0.78194 
 6                    -3.56106  -0.22029  -0.00231 
 6                    -2.85868   0.72638   0.76906 
 6                    -1.46486   0.76435   0.75475 
 7                    -4.97687  -0.25029  -0.00104 
 6                    -5.66784  -1.49328  -0.07589 
 6                    -5.23581  -2.59675   0.68329 
 6                    -5.91534  -3.81593   0.60203 
 6                    -7.04303  -3.94908  -0.21847 
 6                    -7.4808   -2.84822  -0.96593 
 6                    -6.79645  -1.63042  -0.90504 
 6                    -5.7213    0.96239   0.06685 
 6                    -5.33299   2.08247  -0.69138 
 6                    -6.066     3.27069  -0.61604 
 6                    -7.20379   3.35511   0.19683 
 6                    -7.59753   2.23724   0.94353 
 6                    -6.8597    1.0508    0.88907 
 6                     1.55498   1.03436   0.02966 
 7                     1.06723   2.29105   0.05282 
 16                    2.36372   3.29135   0.06433 
 7                     3.58635   2.20128   0.03673 
 6                     3.00871   0.9834    0.01412 
 1                     10.94963  -1.70682   0.58755 
 1                     7.6957   -2.28109   1.34681 
 1                     5.22395  -2.03336   1.38153 
 1                     5.51508   1.29703  -1.35346 
 1                     7.99988   1.04329  -1.37614 
 1                     3.38625  -2.38502  -0.07201 
 1                     0.93815  -2.29975  -0.01457 
 1                    -0.88008  -1.7998   -1.41072 
 1                    -3.348    -1.85889  -1.40491 
 1                    -3.41419   1.4376    1.38434 
 1                    -0.94694   1.50951   1.36047 
 1                    -4.36524  -2.49146   1.33513 
 1                    -5.5674   -4.66404   1.19783 
 1                    -7.57623  -4.90118  -0.27364 
 1                    -8.35645  -2.93871  -1.61422 
 1                    -7.1339   -0.77631  -1.49699 
 1                    -4.45321   2.01625  -1.3359 
 1                    -5.75075   4.13277  -1.20987 
 1                    -7.77836   4.28309   0.24741 
 1                    -8.48022   2.29017   1.58641 
 1                    -7.16259   0.18373   1.48091 
 

 GradGradGradGradGradGradGradGradGradGradGradGradGradGradGradGradGradGrad
 Berny optimization.
 Initialization pass.
                           ----------------------------
                           !    Initial Parameters    !
                           ! (Angstroms and Degrees)  !
 --------------------------                            --------------------------
 ! Name  Definition              Value          Derivative Info.                !
 --------------------------------------------------------------------------------
 ! R1    R(1,2)                  1.3654         estimate D2E/DX2                !
 ! R2    R(1,38)                 0.9786         estimate D2E/DX2                !
 ! R3    R(2,3)                  1.2235         estimate D2E/DX2                !
 ! R4    R(2,4)                  1.4886         estimate D2E/DX2                !
 ! R5    R(4,5)                  1.4046         estimate D2E/DX2                !
 ! R6    R(4,9)                  1.4043         estimate D2E/DX2                !
 ! R7    R(5,6)                  1.3954         estimate D2E/DX2                !
 ! R8    R(5,39)                 1.0915         estimate D2E/DX2                !
 ! R9    R(6,7)                  1.4097         estimate D2E/DX2                !
 ! R10   R(6,40)                 1.0931         estimate D2E/DX2                !
 ! R11   R(7,8)                  1.4096         estimate D2E/DX2                !
 ! R12   R(7,10)                 1.4846         estimate D2E/DX2                !
 ! R13   R(8,9)                  1.3943         estimate D2E/DX2                !
 ! R14   R(8,41)                 1.0908         estimate D2E/DX2                !
 ! R15   R(9,42)                 1.0923         estimate D2E/DX2                !
 ! R16   R(10,11)                1.3843         estimate D2E/DX2                !
 ! R17   R(10,37)                1.4382         estimate D2E/DX2                !
 ! R18   R(11,12)                1.425          estimate D2E/DX2                !
 ! R19   R(11,43)                1.0933         estimate D2E/DX2                !
 ! R20   R(12,13)                1.3855         estimate D2E/DX2                !
 ! R21   R(12,44)                1.093          estimate D2E/DX2                !
 ! R22   R(13,14)                1.4816         estimate D2E/DX2                !
 ! R23   R(13,33)                1.4402         estimate D2E/DX2                !
 ! R24   R(14,15)                1.4093         estimate D2E/DX2                !
 ! R25   R(14,19)                1.4089         estimate D2E/DX2                !
 ! R26   R(15,16)                1.3943         estimate D2E/DX2                !
 ! R27   R(15,45)                1.0936         estimate D2E/DX2                !
 ! R28   R(16,17)                1.4087         estimate D2E/DX2                !
 ! R29   R(16,46)                1.0922         estimate D2E/DX2                !
 ! R30   R(17,18)                1.4087         estimate D2E/DX2                !
 ! R31   R(17,20)                1.4161         estimate D2E/DX2                !
 ! R32   R(18,19)                1.3944         estimate D2E/DX2                !
 ! R33   R(18,47)                1.0922         estimate D2E/DX2                !
 ! R34   R(19,48)                1.0911         estimate D2E/DX2                !
 ! R35   R(20,21)                1.4241         estimate D2E/DX2                !
 ! R36   R(20,27)                1.4246         estimate D2E/DX2                !
 ! R37   R(21,22)                1.4074         estimate D2E/DX2                !
 ! R38   R(21,26)                1.4071         estimate D2E/DX2                !
 ! R39   R(22,23)                1.3981         estimate D2E/DX2                !
 ! R40   R(22,49)                1.0926         estimate D2E/DX2                !
 ! R41   R(23,24)                1.4009         estimate D2E/DX2                !
 ! R42   R(23,50)                1.0933         estimate D2E/DX2                !
 ! R43   R(24,25)                1.4008         estimate D2E/DX2                !
 ! R44   R(24,51)                1.0926         estimate D2E/DX2                !
 ! R45   R(25,26)                1.3982         estimate D2E/DX2                !
 ! R46   R(25,52)                1.0933         estimate D2E/DX2                !
 ! R47   R(26,53)                1.0926         estimate D2E/DX2                !
 ! R48   R(27,28)                1.4072         estimate D2E/DX2                !
 ! R49   R(27,32)                1.4071         estimate D2E/DX2                !
 ! R50   R(28,29)                1.3982         estimate D2E/DX2                !
 ! R51   R(28,54)                1.0926         estimate D2E/DX2                !
 ! R52   R(29,30)                1.4009         estimate D2E/DX2                !
 ! R53   R(29,55)                1.0933         estimate D2E/DX2                !
 ! R54   R(30,31)                1.4008         estimate D2E/DX2                !
 ! R55   R(30,56)                1.0926         estimate D2E/DX2                !
 ! R56   R(31,32)                1.3982         estimate D2E/DX2                !
 ! R57   R(31,57)                1.0933         estimate D2E/DX2                !
 ! R58   R(32,58)                1.0926         estimate D2E/DX2                !
 ! R59   R(33,34)                1.3482         estimate D2E/DX2                !
 ! R60   R(33,37)                1.4547         estimate D2E/DX2                !
 ! R61   R(34,35)                1.6376         estimate D2E/DX2                !
 ! R62   R(35,36)                1.6382         estimate D2E/DX2                !
 ! R63   R(36,37)                1.3481         estimate D2E/DX2                !
 ! A1    A(2,1,38)             105.4632         estimate D2E/DX2                !
 ! A2    A(1,2,3)              121.8247         estimate D2E/DX2                !
 ! A3    A(1,2,4)              113.0842         estimate D2E/DX2                !
 ! A4    A(3,2,4)              125.091          estimate D2E/DX2                !
 ! A5    A(2,4,5)              122.2447         estimate D2E/DX2                !
 ! A6    A(2,4,9)              118.202          estimate D2E/DX2                !
 ! A7    A(5,4,9)              119.5529         estimate D2E/DX2                !
 ! A8    A(4,5,6)              119.8872         estimate D2E/DX2                !
 ! A9    A(4,5,39)             119.7855         estimate D2E/DX2                !
 ! A10   A(6,5,39)             120.3249         estimate D2E/DX2                !
 ! A11   A(5,6,7)              121.0383         estimate D2E/DX2                !
 ! A12   A(5,6,40)             119.4696         estimate D2E/DX2                !
 ! A13   A(7,6,40)             119.4743         estimate D2E/DX2                !
 ! A14   A(6,7,8)              118.5313         estimate D2E/DX2                !
 ! A15   A(6,7,10)             119.8484         estimate D2E/DX2                !
 ! A16   A(8,7,10)             121.609          estimate D2E/DX2                !
 ! A17   A(7,8,9)              120.5841         estimate D2E/DX2                !
 ! A18   A(7,8,41)             119.5981         estimate D2E/DX2                !
 ! A19   A(9,8,41)             119.8176         estimate D2E/DX2                !
 ! A20   A(4,9,8)              120.4007         estimate D2E/DX2                !
 ! A21   A(4,9,42)             118.6916         estimate D2E/DX2                !
 ! A22   A(8,9,42)             120.9077         estimate D2E/DX2                !
 ! A23   A(7,10,11)            121.6504         estimate D2E/DX2                !
 ! A24   A(7,10,37)            122.7447         estimate D2E/DX2                !
 ! A25   A(11,10,37)           115.6038         estimate D2E/DX2                !
 ! A26   A(10,11,12)           123.2859         estimate D2E/DX2                !
 ! A27   A(10,11,43)           118.7498         estimate D2E/DX2                !
 ! A28   A(12,11,43)           117.9594         estimate D2E/DX2                !
 ! A29   A(11,12,13)           123.3124         estimate D2E/DX2                !
 ! A30   A(11,12,44)           117.953          estimate D2E/DX2                !
 ! A31   A(13,12,44)           118.7274         estimate D2E/DX2                !
 ! A32   A(12,13,14)           121.7918         estimate D2E/DX2                !
 ! A33   A(12,13,33)           115.4004         estimate D2E/DX2                !
 ! A34   A(14,13,33)           122.8038         estimate D2E/DX2                !
 ! A35   A(13,14,15)           120.215          estimate D2E/DX2                !
 ! A36   A(13,14,19)           122.1231         estimate D2E/DX2                !
 ! A37   A(15,14,19)           117.6488         estimate D2E/DX2                !
 ! A38   A(14,15,16)           121.5282         estimate D2E/DX2                !
 ! A39   A(14,15,45)           119.523          estimate D2E/DX2                !
 ! A40   A(16,15,45)           118.8973         estimate D2E/DX2                !
 ! A41   A(15,16,17)           120.4155         estimate D2E/DX2                !
 ! A42   A(15,16,46)           119.9793         estimate D2E/DX2                !
 ! A43   A(17,16,46)           119.6014         estimate D2E/DX2                !
 ! A44   A(16,17,18)           118.4512         estimate D2E/DX2                !
 ! A45   A(16,17,20)           120.7355         estimate D2E/DX2                !
 ! A46   A(18,17,20)           120.8122         estimate D2E/DX2                !
 ! A47   A(17,18,19)           120.7345         estimate D2E/DX2                !
 ! A48   A(17,18,47)           119.5016         estimate D2E/DX2                !
 ! A49   A(19,18,47)           119.7639         estimate D2E/DX2                !
 ! A50   A(14,19,18)           121.2056         estimate D2E/DX2                !
 ! A51   A(14,19,48)           119.614          estimate D2E/DX2                !
 ! A52   A(18,19,48)           119.1695         estimate D2E/DX2                !
 ! A53   A(17,20,21)           120.234          estimate D2E/DX2                !
 ! A54   A(17,20,27)           120.2955         estimate D2E/DX2                !
 ! A55   A(21,20,27)           119.4694         estimate D2E/DX2                !
 ! A56   A(20,21,22)           120.4679         estimate D2E/DX2                !
 ! A57   A(20,21,26)           120.3443         estimate D2E/DX2                !
 ! A58   A(22,21,26)           119.1869         estimate D2E/DX2                !
 ! A59   A(21,22,23)           120.2094         estimate D2E/DX2                !
 ! A60   A(21,22,49)           119.3965         estimate D2E/DX2                !
 ! A61   A(23,22,49)           120.3941         estimate D2E/DX2                !
 ! A62   A(22,23,24)           120.5406         estimate D2E/DX2                !
 ! A63   A(22,23,50)           119.347          estimate D2E/DX2                !
 ! A64   A(24,23,50)           120.106          estimate D2E/DX2                !
 ! A65   A(23,24,25)           119.3            estimate D2E/DX2                !
 ! A66   A(23,24,51)           120.3453         estimate D2E/DX2                !
 ! A67   A(25,24,51)           120.3547         estimate D2E/DX2                !
 ! A68   A(24,25,26)           120.5485         estimate D2E/DX2                !
 ! A69   A(24,25,52)           120.1106         estimate D2E/DX2                !
 ! A70   A(26,25,52)           119.3361         estimate D2E/DX2                !
 ! A71   A(21,26,25)           120.2055         estimate D2E/DX2                !
 ! A72   A(21,26,53)           119.3909         estimate D2E/DX2                !
 ! A73   A(25,26,53)           120.4033         estimate D2E/DX2                !
 ! A74   A(20,27,28)           120.51           estimate D2E/DX2                !
 ! A75   A(20,27,32)           120.2732         estimate D2E/DX2                !
 ! A76   A(28,27,32)           119.2158         estimate D2E/DX2                !
 ! A77   A(27,28,29)           120.1812         estimate D2E/DX2                !
 ! A78   A(27,28,54)           119.4585         estimate D2E/DX2                !
 ! A79   A(29,28,54)           120.36           estimate D2E/DX2                !
 ! A80   A(28,29,30)           120.5499         estimate D2E/DX2                !
 ! A81   A(28,29,55)           119.3208         estimate D2E/DX2                !
 ! A82   A(30,29,55)           120.1239         estimate D2E/DX2                !
 ! A83   A(29,30,31)           119.3087         estimate D2E/DX2                !
 ! A84   A(29,30,56)           120.3406         estimate D2E/DX2                !
 ! A85   A(31,30,56)           120.3507         estimate D2E/DX2                !
 ! A86   A(30,31,32)           120.5353         estimate D2E/DX2                !
 ! A87   A(30,31,57)           120.1163         estimate D2E/DX2                !
 ! A88   A(32,31,57)           119.3434         estimate D2E/DX2                !
 ! A89   A(27,32,31)           120.1996         estimate D2E/DX2                !
 ! A90   A(27,32,58)           119.4029         estimate D2E/DX2                !
 ! A91   A(31,32,58)           120.3972         estimate D2E/DX2                !
 ! A92   A(13,33,34)           125.4892         estimate D2E/DX2                !
 ! A93   A(13,33,37)           121.2813         estimate D2E/DX2                !
 ! A94   A(34,33,37)           113.2259         estimate D2E/DX2                !
 ! A95   A(33,34,35)           106.4441         estimate D2E/DX2                !
 ! A96   A(34,35,36)           100.6201         estimate D2E/DX2                !
 ! A97   A(35,36,37)           106.3563         estimate D2E/DX2                !
 ! A98   A(10,37,33)           121.1117         estimate D2E/DX2                !
 ! A99   A(10,37,36)           125.5341         estimate D2E/DX2                !
 ! A100  A(33,37,36)           113.3517         estimate D2E/DX2                !
 ! D1    D(38,1,2,3)             0.0936         estimate D2E/DX2                !
 ! D2    D(38,1,2,4)          -179.9605         estimate D2E/DX2                !
 ! D3    D(1,2,4,5)             -0.053          estimate D2E/DX2                !
 ! D4    D(1,2,4,9)            179.701          estimate D2E/DX2                !
 ! D5    D(3,2,4,5)            179.8909         estimate D2E/DX2                !
 ! D6    D(3,2,4,9)             -0.3551         estimate D2E/DX2                !
 ! D7    D(2,4,5,6)           -179.9301         estimate D2E/DX2                !
 ! D8    D(2,4,5,39)             0.6346         estimate D2E/DX2                !
 ! D9    D(9,4,5,6)              0.3192         estimate D2E/DX2                !
 ! D10   D(9,4,5,39)          -179.1162         estimate D2E/DX2                !
 ! D11   D(2,4,9,8)           -179.9209         estimate D2E/DX2                !
 ! D12   D(2,4,9,42)             0.1563         estimate D2E/DX2                !
 ! D13   D(5,4,9,8)             -0.1601         estimate D2E/DX2                !
 ! D14   D(5,4,9,42)           179.9171         estimate D2E/DX2                !
 ! D15   D(4,5,6,7)              0.125          estimate D2E/DX2                !
 ! D16   D(4,5,6,40)          -178.3299         estimate D2E/DX2                !
 ! D17   D(39,5,6,7)           179.5572         estimate D2E/DX2                !
 ! D18   D(39,5,6,40)            1.1024         estimate D2E/DX2                !
 ! D19   D(5,6,7,8)             -0.7149         estimate D2E/DX2                !
 ! D20   D(5,6,7,10)           178.0821         estimate D2E/DX2                !
 ! D21   D(40,6,7,8)           177.7399         estimate D2E/DX2                !
 ! D22   D(40,6,7,10)           -3.4631         estimate D2E/DX2                !
 ! D23   D(6,7,8,9)              0.8728         estimate D2E/DX2                !
 ! D24   D(6,7,8,41)          -179.2924         estimate D2E/DX2                !
 ! D25   D(10,7,8,9)          -177.902          estimate D2E/DX2                !
 ! D26   D(10,7,8,41)            1.9328         estimate D2E/DX2                !
 ! D27   D(6,7,10,11)          -39.2294         estimate D2E/DX2                !
 ! D28   D(6,7,10,37)          140.3675         estimate D2E/DX2                !
 ! D29   D(8,7,10,11)          139.5295         estimate D2E/DX2                !
 ! D30   D(8,7,10,37)          -40.8736         estimate D2E/DX2                !
 ! D31   D(7,8,9,4)             -0.4453         estimate D2E/DX2                !
 ! D32   D(7,8,9,42)           179.4758         estimate D2E/DX2                !
 ! D33   D(41,8,9,4)           179.7204         estimate D2E/DX2                !
 ! D34   D(41,8,9,42)           -0.3586         estimate D2E/DX2                !
 ! D35   D(7,10,11,12)         179.1516         estimate D2E/DX2                !
 ! D36   D(7,10,11,43)          -1.6653         estimate D2E/DX2                !
 ! D37   D(37,10,11,12)         -0.4725         estimate D2E/DX2                !
 ! D38   D(37,10,11,43)        178.7106         estimate D2E/DX2                !
 ! D39   D(7,10,37,33)        -179.0038         estimate D2E/DX2                !
 ! D40   D(7,10,37,36)           0.3881         estimate D2E/DX2                !
 ! D41   D(11,10,37,33)          0.6157         estimate D2E/DX2                !
 ! D42   D(11,10,37,36)       -179.9924         estimate D2E/DX2                !
 ! D43   D(10,11,12,13)          0.3943         estimate D2E/DX2                !
 ! D44   D(10,11,12,44)       -178.6194         estimate D2E/DX2                !
 ! D45   D(43,11,12,13)       -178.7948         estimate D2E/DX2                !
 ! D46   D(43,11,12,44)          2.1915         estimate D2E/DX2                !
 ! D47   D(11,12,13,14)        178.8943         estimate D2E/DX2                !
 ! D48   D(11,12,13,33)         -0.4008         estimate D2E/DX2                !
 ! D49   D(44,12,13,14)         -2.0992         estimate D2E/DX2                !
 ! D50   D(44,12,13,33)        178.6057         estimate D2E/DX2                !
 ! D51   D(12,13,14,15)        -37.1221         estimate D2E/DX2                !
 ! D52   D(12,13,14,19)        141.5271         estimate D2E/DX2                !
 ! D53   D(33,13,14,15)        142.1202         estimate D2E/DX2                !
 ! D54   D(33,13,14,19)        -39.2306         estimate D2E/DX2                !
 ! D55   D(12,13,33,34)        179.8121         estimate D2E/DX2                !
 ! D56   D(12,13,33,37)          0.5466         estimate D2E/DX2                !
 ! D57   D(14,13,33,34)          0.525          estimate D2E/DX2                !
 ! D58   D(14,13,33,37)       -178.7406         estimate D2E/DX2                !
 ! D59   D(13,14,15,16)        178.5707         estimate D2E/DX2                !
 ! D60   D(13,14,15,45)         -4.0681         estimate D2E/DX2                !
 ! D61   D(19,14,15,16)         -0.1378         estimate D2E/DX2                !
 ! D62   D(19,14,15,45)        177.2233         estimate D2E/DX2                !
 ! D63   D(13,14,19,18)       -177.4851         estimate D2E/DX2                !
 ! D64   D(13,14,19,48)          1.3057         estimate D2E/DX2                !
 ! D65   D(15,14,19,18)          1.1972         estimate D2E/DX2                !
 ! D66   D(15,14,19,48)        179.9879         estimate D2E/DX2                !
 ! D67   D(14,15,16,17)         -0.8053         estimate D2E/DX2                !
 ! D68   D(14,15,16,46)        178.4839         estimate D2E/DX2                !
 ! D69   D(45,15,16,17)       -178.1825         estimate D2E/DX2                !
 ! D70   D(45,15,16,46)          1.1067         estimate D2E/DX2                !
 ! D71   D(15,16,17,18)          0.6928         estimate D2E/DX2                !
 ! D72   D(15,16,17,20)       -179.6898         estimate D2E/DX2                !
 ! D73   D(46,16,17,18)       -178.5991         estimate D2E/DX2                !
 ! D74   D(46,16,17,20)          1.0183         estimate D2E/DX2                !
 ! D75   D(16,17,18,19)          0.3554         estimate D2E/DX2                !
 ! D76   D(16,17,18,47)       -179.6504         estimate D2E/DX2                !
 ! D77   D(20,17,18,19)       -179.2617         estimate D2E/DX2                !
 ! D78   D(20,17,18,47)          0.7325         estimate D2E/DX2                !
 ! D79   D(16,17,20,21)         36.523          estimate D2E/DX2                !
 ! D80   D(16,17,20,27)       -143.0937         estimate D2E/DX2                !
 ! D81   D(18,17,20,21)       -143.8687         estimate D2E/DX2                !
 ! D82   D(18,17,20,27)         36.5146         estimate D2E/DX2                !
 ! D83   D(17,18,19,14)         -1.3237         estimate D2E/DX2                !
 ! D84   D(17,18,19,48)        179.8803         estimate D2E/DX2                !
 ! D85   D(47,18,19,14)        178.6821         estimate D2E/DX2                !
 ! D86   D(47,18,19,48)         -0.1139         estimate D2E/DX2                !
 ! D87   D(17,20,21,22)         42.941          estimate D2E/DX2                !
 ! D88   D(17,20,21,26)       -137.4215         estimate D2E/DX2                !
 ! D89   D(27,20,21,22)       -137.4391         estimate D2E/DX2                !
 ! D90   D(27,20,21,26)         42.1984         estimate D2E/DX2                !
 ! D91   D(17,20,27,28)         42.3998         estimate D2E/DX2                !
 ! D92   D(17,20,27,32)       -137.955          estimate D2E/DX2                !
 ! D93   D(21,20,27,28)       -137.2199         estimate D2E/DX2                !
 ! D94   D(21,20,27,32)         42.4254         estimate D2E/DX2                !
 ! D95   D(20,21,22,23)       -179.77           estimate D2E/DX2                !
 ! D96   D(20,21,22,49)          0.19           estimate D2E/DX2                !
 ! D97   D(26,21,22,23)          0.5883         estimate D2E/DX2                !
 ! D98   D(26,21,22,49)       -179.4517         estimate D2E/DX2                !
 ! D99   D(20,21,26,25)       -179.3476         estimate D2E/DX2                !
 ! D100  D(20,21,26,53)          0.4463         estimate D2E/DX2                !
 ! D101  D(22,21,26,25)          0.2945         estimate D2E/DX2                !
 ! D102  D(22,21,26,53)       -179.9116         estimate D2E/DX2                !
 ! D103  D(21,22,23,24)         -0.9349         estimate D2E/DX2                !
 ! D104  D(21,22,23,50)        179.9851         estimate D2E/DX2                !
 ! D105  D(49,22,23,24)        179.1056         estimate D2E/DX2                !
 ! D106  D(49,22,23,50)          0.0256         estimate D2E/DX2                !
 ! D107  D(22,23,24,25)          0.3877         estimate D2E/DX2                !
 ! D108  D(22,23,24,51)       -179.5258         estimate D2E/DX2                !
 ! D109  D(50,23,24,25)        179.4607         estimate D2E/DX2                !
 ! D110  D(50,23,24,51)         -0.4528         estimate D2E/DX2                !
 ! D111  D(23,24,25,26)          0.5017         estimate D2E/DX2                !
 ! D112  D(23,24,25,52)        179.7063         estimate D2E/DX2                !
 ! D113  D(51,24,25,26)       -179.5848         estimate D2E/DX2                !
 ! D114  D(51,24,25,52)         -0.3802         estimate D2E/DX2                !
 ! D115  D(24,25,26,21)         -0.8437         estimate D2E/DX2                !
 ! D116  D(24,25,26,53)        179.3644         estimate D2E/DX2                !
 ! D117  D(52,25,26,21)        179.9455         estimate D2E/DX2                !
 ! D118  D(52,25,26,53)          0.1537         estimate D2E/DX2                !
 ! D119  D(20,27,28,29)       -179.7828         estimate D2E/DX2                !
 ! D120  D(20,27,28,54)          0.0239         estimate D2E/DX2                !
 ! D121  D(32,27,28,29)          0.5683         estimate D2E/DX2                !
 ! D122  D(32,27,28,54)       -179.6251         estimate D2E/DX2                !
 ! D123  D(20,27,32,31)       -179.3109         estimate D2E/DX2                !
 ! D124  D(20,27,32,58)          0.4943         estimate D2E/DX2                !
 ! D125  D(28,27,32,31)          0.3389         estimate D2E/DX2                !
 ! D126  D(28,27,32,58)       -179.8559         estimate D2E/DX2                !
 ! D127  D(27,28,29,30)         -0.9549         estimate D2E/DX2                !
 ! D128  D(27,28,29,55)        179.8936         estimate D2E/DX2                !
 ! D129  D(54,28,29,30)        179.2403         estimate D2E/DX2                !
 ! D130  D(54,28,29,55)          0.0887         estimate D2E/DX2                !
 ! D131  D(28,29,30,31)          0.4234         estimate D2E/DX2                !
 ! D132  D(28,29,30,56)       -179.5439         estimate D2E/DX2                !
 ! D133  D(55,29,30,31)        179.5681         estimate D2E/DX2                !
 ! D134  D(55,29,30,56)         -0.3992         estimate D2E/DX2                !
 ! D135  D(29,30,31,32)          0.4908         estimate D2E/DX2                !
 ! D136  D(29,30,31,57)        179.669          estimate D2E/DX2                !
 ! D137  D(56,30,31,32)       -179.5419         estimate D2E/DX2                !
 ! D138  D(56,30,31,57)         -0.3637         estimate D2E/DX2                !
 ! D139  D(30,31,32,27)         -0.8729         estimate D2E/DX2                !
 ! D140  D(30,31,32,58)        179.3239         estimate D2E/DX2                !
 ! D141  D(57,31,32,27)        179.9426         estimate D2E/DX2                !
 ! D142  D(57,31,32,58)          0.1394         estimate D2E/DX2                !
 ! D143  D(13,33,34,35)       -179.69           estimate D2E/DX2                !
 ! D144  D(37,33,34,35)         -0.373          estimate D2E/DX2                !
 ! D145  D(13,33,37,10)         -0.687          estimate D2E/DX2                !
 ! D146  D(13,33,37,36)        179.852          estimate D2E/DX2                !
 ! D147  D(34,33,37,10)        179.9637         estimate D2E/DX2                !
 ! D148  D(34,33,37,36)          0.5027         estimate D2E/DX2                !
 ! D149  D(33,34,35,36)          0.1502         estimate D2E/DX2                !
 ! D150  D(34,35,36,37)          0.1276         estimate D2E/DX2                !
 ! D151  D(35,36,37,10)       -179.7907         estimate D2E/DX2                !
 ! D152  D(35,36,37,33)         -0.3578         estimate D2E/DX2                !
 --------------------------------------------------------------------------------
 Trust Radius=3.00D-01 FncErr=1.00D-07 GrdErr=1.00D-06 EigMax=2.50D+02 EigMin=1.00D-04
 Number of steps in this run=    325 maximum allowed number of steps=    348.
 GradGradGradGradGradGradGradGradGradGradGradGradGradGradGradGradGradGrad

 Stoichiometry    C31H21N3O2S
 Framework group  C1[X(C31H21N3O2S)]
 Deg. of freedom   168
 Full point group                 C1      NOp   1
 Largest Abelian subgroup         C1      NOp   1
 Largest concise Abelian subgroup C1      NOp   1
                         Standard orientation:                         
 ---------------------------------------------------------------------
 Center     Atomic      Atomic             Coordinates (Angstroms)
 Number     Number       Type             X           Y           Z
 ---------------------------------------------------------------------
      1          8           0       -9.978252   -1.743074   -0.700694
      2          6           0       -9.483523   -0.734013    0.074747
      3          8           0      -10.216052   -0.005799    0.730489
      4          6           0       -7.999065   -0.634680    0.026081
      5          6           0       -7.214629   -1.505961   -0.747548
      6          6           0       -5.825933   -1.369336   -0.755790
      7          6           0       -5.189602   -0.367733    0.005137
      8          6           0       -5.988574    0.508332    0.767374
      9          6           0       -7.376244    0.372690    0.780663
     10          6           0       -3.708032   -0.273084    0.010420
     11          6           0       -2.908066   -1.402652    0.031314
     12          6           0       -1.483963   -1.352769    0.019379
     13          6           0       -0.764213   -0.169147   -0.006300
     14          6           0        0.717300   -0.156053    0.006248
     15          6           0        1.428408   -1.100579    0.773192
     16          6           0        2.822307   -1.131878    0.781935
     17          6           0        3.561063   -0.220293    0.002307
     18          6           0        2.858678    0.726381   -0.769059
     19          6           0        1.464855    0.764351   -0.754750
     20          7           0        4.976867   -0.250289    0.001043
     21          6           0        5.667844   -1.493278    0.075891
     22          6           0        5.235812   -2.596746   -0.683293
     23          6           0        5.915335   -3.815927   -0.602025
     24          6           0        7.043029   -3.949078    0.218472
     25          6           0        7.480804   -2.848215    0.965930
     26          6           0        6.796455   -1.630419    0.905035
     27          6           0        5.721295    0.962393   -0.066849
     28          6           0        5.332988    2.082465    0.691378
     29          6           0        6.065999    3.270686    0.616043
     30          6           0        7.203791    3.355105   -0.196832
     31          6           0        7.597532    2.237237   -0.943525
     32          6           0        6.859700    1.050799   -0.889068
     33          6           0       -1.554977    1.034357   -0.029656
     34          7           0       -1.067234    2.291052   -0.052820
     35         16           0       -2.363717    3.291346   -0.064330
     36          7           0       -3.586351    2.201276   -0.036729
     37          6           0       -3.008707    0.983402   -0.014115
     38          1           0      -10.949633   -1.706819   -0.587554
     39          1           0       -7.695695   -2.281088   -1.346809
     40          1           0       -5.223953   -2.033357   -1.381529
     41          1           0       -5.515079    1.297030    1.353463
     42          1           0       -7.999883    1.043292    1.376138
     43          1           0       -3.386249   -2.385021    0.072014
     44          1           0       -0.938147   -2.299748    0.014568
     45          1           0        0.880080   -1.799801    1.410722
     46          1           0        3.348003   -1.858885    1.404911
     47          1           0        3.414185    1.437603   -1.384338
     48          1           0        0.946937    1.509506   -1.360474
     49          1           0        4.365244   -2.491461   -1.335127
     50          1           0        5.567402   -4.664043   -1.197825
     51          1           0        7.576233   -4.901179    0.273644
     52          1           0        8.356450   -2.938712    1.614222
     53          1           0        7.133902   -0.776310    1.496986
     54          1           0        4.453208    2.016251    1.335895
     55          1           0        5.750745    4.132768    1.209867
     56          1           0        7.778357    4.283094   -0.247409
     57          1           0        8.480224    2.290173   -1.586406
     58          1           0        7.162586    0.183732   -1.480912
 ---------------------------------------------------------------------
 Rotational constants (GHZ):           0.2489408           0.0314017           0.0284097
 Standard basis: 6-31+G(d,p) (6D, 7F)
 There are   812 symmetry adapted cartesian basis functions of A   symmetry.
 There are   812 symmetry adapted basis functions of A   symmetry.
   812 basis functions,  1355 primitive gaussians,   812 cartesian basis functions
   130 alpha electrons      130 beta electrons
       nuclear repulsion energy      3551.6922965222 Hartrees.
 NAtoms=   58 NActive=   58 NUniq=   58 SFac= 1.00D+00 NAtFMM=   60 NAOKFM=F Big=F
 Integral buffers will be    131072 words long.
 Raffenetti 1 integral format.
 Two-electron integral symmetry is turned on.
 One-electron integrals computed using PRISM.
 NBasis=   812 RedAO= T EigKep=  1.19D-06  NBF=   812
 NBsUse=   804 1.00D-06 EigRej=  8.79D-07 NBFU=   804
 ExpMin= 4.05D-02 ExpMax= 2.19D+04 ExpMxC= 3.30D+03 IAcc=3 IRadAn=         5 AccDes= 0.00D+00
 Harris functional with IExCor=33909 and IRadAn=       5 diagonalized for initial guess.
 HarFok:  IExCor=33909 AccDes= 0.00D+00 IRadAn=         5 IDoV= 1 UseB2=F ITyADJ=14
 ICtDFT=  3500011 ScaDFX=  1.000000  1.000000  1.000000  1.000000
 FoFCou: FMM=F IPFlag=           0 FMFlag=      100000 FMFlg1=           0
         NFxFlg=           0 DoJE=T BraDBF=F KetDBF=T FulRan=T
         wScrn=  0.000000 ICntrl=       500 IOpCl=  0 I1Cent=   200000004 NGrid=           0
         NMat0=    1 NMatS0=      1 NMatT0=    0 NMatD0=    1 NMtDS0=    0 NMtDT0=    0
 Petite list used in FoFCou.
 Requested convergence on RMS density matrix=1.00D-08 within 128 cycles.
 Requested convergence on MAX density matrix=1.00D-06.
 Requested convergence on             energy=1.00D-06.
 No special actions if energy rises.
 SCF Done:  E(RLC-wHPBE) =  -1905.38874021     A.U. after   18 cycles
            NFock= 18  Conv=0.57D-08     -V/T= 2.0089
 DoSCS=F DFT=T ScalE2(SS,OS)=  1.000000  1.000000
 ExpMin= 4.05D-02 ExpMax= 2.19D+04 ExpMxC= 3.30D+03 IAcc=3 IRadAn=         5 AccDes= 0.00D+00
 HarFok:  IExCor=  205 AccDes= 0.00D+00 IRadAn=         5 IDoV=-2 UseB2=F ITyADJ=14
 ICtDFT= 12500011 ScaDFX=  1.000000  1.000000  1.000000  1.000000
 GSVD:  LWork=       -2009 too small for GESVD, short by        9020 words or        9020 for optimal perf.
 Range of M.O.s used for correlation:    42   804
 NBasis=   812 NAE=   130 NBE=   130 NFC=    41 NFV=     0
 NROrb=    763 NOA=    89 NOB=    89 NVA=   674 NVB=   674

 **** Warning!!: The largest alpha MO coefficient is  0.19527562D+03

 Orbital symmetries:
       Occupied  (A) (A) (A) (A) (A) (A) (A) (A) (A) (A) (A) (A)
                 (A) (A) (A) (A) (A) (A) (A) (A) (A) (A) (A) (A)
                 (A) (A) (A) (A) (A) (A) (A) (A) (A) (A) (A) (A)
                 (A) (A) (A) (A) (A) (A) (A) (A) (A) (A) (A) (A)
                 (A) (A) (A) (A) (A) (A) (A) (A) (A) (A) (A) (A)
                 (A) (A) (A) (A) (A) (A) (A) (A) (A) (A) (A) (A)
                 (A) (A) (A) (A) (A) (A) (A) (A) (A) (A) (A) (A)
                 (A) (A) (A) (A) (A) (A) (A) (A) (A) (A) (A) (A)
                 (A) (A) (A) (A) (A) (A) (A) (A) (A) (A) (A) (A)
                 (A) (A) (A) (A) (A) (A) (A) (A) (A) (A) (A) (A)
                 (A) (A) (A) (A) (A) (A) (A) (A) (A) (A)
       Virtual   (A) (A) (A) (A) (A) (A) (A) (A) (A) (A) (A) (A)
                 (A) (A) (A) (A) (A) (A) (A) (A) (A) (A) (A) (A)
                 (A) (A) (A) (A) (A) (A) (A) (A) (A) (A) (A) (A)
                 (A) (A) (A) (A) (A) (A) (A) (A) (A) (A) (A) (A)
                 (A) (A) (A) (A) (A) (A) (A) (A) (A) (A) (A) (A)
                 (A) (A) (A) (A) (A) (A) (A) (A) (A) (A) (A) (A)
                 (A) (A) (A) (A) (A) (A) (A) (A) (A) (A) (A) (A)
                 (A) (A) (A) (A) (A) (A) (A) (A) (A) (A) (A) (A)
                 (A) (A) (A) (A) (A) (A) (A) (A) (A) (A) (A) (A)
                 (A) (A) (A) (A) (A) (A) (A) (A) (A) (A) (A) (A)
                 (A) (A) (A) (A) (A) (A) (A) (A) (A) (A) (A) (A)
                 (A) (A) (A) (A) (A) (A) (A) (A) (A) (A) (A) (A)
                 (A) (A) (A) (A) (A) (A) (A) (A) (A) (A) (A) (A)
                 (A) (A) (A) (A) (A) (A) (A) (A) (A) (A) (A) (A)
                 (A) (A) (A) (A) (A) (A) (A) (A) (A) (A) (A) (A)
                 (A) (A) (A) (A) (A) (A) (A) (A) (A) (A) (A) (A)
                 (A) (A) (A) (A) (A) (A) (A) (A) (A) (A) (A) (A)
                 (A) (A) (A) (A) (A) (A) (A) (A) (A) (A) (A) (A)
                 (A) (A) (A) (A) (A) (A) (A) (A) (A) (A) (A) (A)
                 (A) (A) (A) (A) (A) (A) (A) (A) (A) (A) (A) (A)
                 (A) (A) (A) (A) (A) (A) (A) (A) (A) (A) (A) (A)
                 (A) (A) (A) (A) (A) (A) (A) (A) (A) (A) (A) (A)
                 (A) (A) (A) (A) (A) (A) (A) (A) (A) (A) (A) (A)
                 (A) (A) (A) (A) (A) (A) (A) (A) (A) (A) (A) (A)
                 (A) (A) (A) (A) (A) (A) (A) (A) (A) (A) (A) (A)
                 (A) (A) (A) (A) (A) (A) (A) (A) (A) (A) (A) (A)
                 (A) (A) (A) (A) (A) (A) (A) (A) (A) (A) (A) (A)
                 (A) (A) (A) (A) (A) (A) (A) (A) (A) (A) (A) (A)
                 (A) (A) (A) (A) (A) (A) (A) (A) (A) (A) (A) (A)
                 (A) (A) (A) (A) (A) (A) (A) (A) (A) (A) (A) (A)
                 (A) (A) (A) (A) (A) (A) (A) (A) (A) (A) (A) (A)
                 (A) (A) (A) (A) (A) (A) (A) (A) (A) (A) (A) (A)
                 (A) (A) (A) (A) (A) (A) (A) (A) (A) (A) (A) (A)
                 (A) (A) (A) (A) (A) (A) (A) (A) (A) (A) (A) (A)
                 (A) (A) (A) (A) (A) (A) (A) (A) (A) (A) (A) (A)
                 (A) (A) (A) (A) (A) (A) (A) (A) (A) (A) (A) (A)
                 (A) (A) (A) (A) (A) (A) (A) (A) (A) (A) (A) (A)
                 (A) (A) (A) (A) (A) (A) (A) (A) (A) (A) (A) (A)
                 (A) (A) (A) (A) (A) (A) (A) (A) (A) (A) (A) (A)
                 (A) (A) (A) (A) (A) (A) (A) (A) (A) (A) (A) (A)
                 (A) (A) (A) (A) (A) (A) (A) (A) (A) (A) (A) (A)
                 (A) (A) (A) (A) (A) (A) (A) (A) (A) (A) (A) (A)
                 (A) (A) (A) (A) (A) (A) (A) (A) (A) (A) (A) (A)
                 (A) (A) (A) (A) (A) (A) (A) (A) (A) (A) (A) (A)
                 (A) (A) (A) (A) (A) (A) (A) (A) (A) (A) (A) (A)
                 (A) (A) (A) (A) (A) (A) (A) (A) (A) (A) (A) (A)
                 (A) (A) (A) (A) (A) (A) (A) (A) (A) (A) (A) (A)
                 (A) (A) (A) (A) (A) (A) (A) (A) (A) (A) (A) (A)
                 (A) (A) (A) (A) (A) (A) (A) (A) (A) (A) (A) (A)
                 (A) (A) (A) (A) (A) (A) (A) (A) (A) (A) (A) (A)
                 (A) (A) (A) (A) (A) (A) (A) (A) (A) (A) (A) (A)
                 (A) (A) (A) (A) (A) (A) (A) (A) (A) (A) (A) (A)
                 (A) (A) (A) (A) (A) (A) (A) (A) (A) (A) (A) (A)
                 (A) (A) (A) (A) (A) (A) (A) (A) (A) (A) (A) (A)
                 (A) (A) (A) (A) (A) (A) (A) (A) (A) (A) (A) (A)
                 (A) (A) (A) (A) (A) (A) (A) (A) (A) (A) (A) (A)
                 (A) (A)
    12 initial guesses have been made.
 Convergence on wavefunction:    0.000001000000000
 Iteration     1 Dimension    12 NMult     0 NNew     12
 CISAX will form    12 AO SS matrices at one time.
 New state      2 was old state      5
 Iteration     2 Dimension    18 NMult    12 NNew      6
 Iteration     3 Dimension    24 NMult    18 NNew      6
 New state      2 was old state      3
 New state      3 was old state      2
 Iteration     4 Dimension    30 NMult    24 NNew      6
 Iteration     5 Dimension    36 NMult    30 NNew      6
 Iteration     6 Dimension    42 NMult    36 NNew      6
 Iteration     7 Dimension    48 NMult    42 NNew      6
 Iteration     8 Dimension    54 NMult    48 NNew      6
 Iteration     9 Dimension    60 NMult    54 NNew      6
 Iteration    10 Dimension    66 NMult    60 NNew      6
 Iteration    11 Dimension    72 NMult    66 NNew      6
 Iteration    12 Dimension    78 NMult    72 NNew      6
 Iteration    13 Dimension    84 NMult    78 NNew      6
 Iteration    14 Dimension    88 NMult    84 NNew      4
 Iteration    15 Dimension    92 NMult    88 NNew      4
 Iteration    16 Dimension    96 NMult    92 NNew      4
 Iteration    17 Dimension    98 NMult    96 NNew      2
 ***********************************************************************
 Excited states from <AA,BB:AA,BB> singles matrix:
 ***********************************************************************
 
 Ground to excited state transition densities written to RWF  633
 Ground to excited state transition electric dipole moments (Au):
       state          X           Y           Z        Dip. S.      Osc.
         1         2.7428     -0.0547      0.0110      7.5263      0.5183
         2         0.1433     -0.2002      0.0064      0.0606      0.0054
         3        -0.0792      0.1351      0.3602      0.1543      0.0142
 Ground to excited state transition velocity dipole moments (Au):
       state          X           Y           Z        Dip. S.      Osc.
         1        -0.2802      0.0060     -0.0016      0.0786      0.5071
         2        -0.0156      0.0259     -0.0006      0.0009      0.0046
         3         0.0109     -0.0184     -0.0554      0.0035      0.0170
 Ground to excited state transition magnetic dipole moments (Au):
       state          X           Y           Z
         1         0.0240     -0.0358     -0.2455
         2         0.0754     -0.0678      0.0282
         3         0.0342      0.4942     -1.4523
 Ground to excited state transition velocity quadrupole moments (Au):
       state          XX          YY          ZZ          XY          XZ          YZ
         1         0.4020     -0.1912     -0.0170      0.1272     -0.0059      0.0331
         2        -3.1131     -0.1692     -0.0073     -0.0489      0.0021     -0.0593
         3         0.0027      0.0425     -0.0031     -0.2260     -0.5368      0.0319
 <0|del|b> * <b|rxdel|0> + <0|del|b> * <b|delr+rdel|0>
 Rotatory Strengths (R) in cgs (10**-40 erg-esu-cm/Gauss)
       state          XX          YY          ZZ    R(velocity)    E-M Angle
         1         0.0127    -52.7361      7.8379    -14.9618       95.38
         2        -4.7862     -0.7849    -10.1292     -5.2334      157.89
         3       189.1254    175.5375      2.0667    122.2432       38.09
 1/2[<0|r|b>*<b|rxdel|0> + (<0|rxdel|b>*<b|r|0>)*]
 Rotatory Strengths (R) in cgs (10**-40 erg-esu-cm/Gauss)
       state          XX          YY          ZZ     R(length)
         1       -46.5240     -1.3851      1.9125    -15.3322
         2        -7.6375     -9.5976     -0.1283     -5.7878
         3         1.9148    -47.2111    369.9473    108.2170
  1/2[<0|del|b>*<b|r|0> + (<0|r|b>*<b|del|0>)*] (Au)
       state          X           Y           Z        Dip. S.   Osc.(frdel)
         1        -0.7687     -0.0003     -0.0000      0.7690      0.5127
         2        -0.0022     -0.0052     -0.0000      0.0074      0.0050
         3        -0.0009     -0.0025     -0.0200      0.0233      0.0155

 Excitation energies and oscillator strengths:
 
 Excited State   1:      Singlet-A      2.8107 eV  441.11 nm  f=0.5183  <S**2>=0.000
     129 ->131        -0.29303
     130 ->131         0.62276
 This state for optimization and/or second-order correction.
 Total Energy, E(TD-HF/TD-DFT) =  -1905.28544731    
 Copying the excited state density for this state as the 1-particle RhoCI density.
 
 Excited State   2:      Singlet-A      3.6172 eV  342.77 nm  f=0.0054  <S**2>=0.000
     129 ->131         0.57119
     129 ->132        -0.11282
     130 ->131         0.23392
     130 ->133         0.23478
 
 Excited State   3:      Singlet-A      3.7636 eV  329.43 nm  f=0.0142  <S**2>=0.000
     130 ->134         0.67256
 SavETr:  write IOETrn=   770 NScale= 10 NData=  16 NLR=1 NState=    3 LETran=      64.
          IDoAtm=11111111111111111111111111111111111111111111111111
          IDoAtm=11111111
          Differentiating once with respect to electric field.
                with respect to dipole field.
          Differentiating once with respect to nuclear coordinates.
          There are     1 degrees of freedom in the 1st order CPHF.  IDoFFX=0 NUNeed=     1.
 LinEq1:  Iter=  0 NonCon=     1 RMS=2.98D-03 Max=2.97D-01 NDo=     1
 AX will form     1 AO Fock derivatives at one time.
 LinEq1:  Iter=  1 NonCon=     1 RMS=1.68D-03 Max=1.88D-01 NDo=     1
 LinEq1:  Iter=  2 NonCon=     1 RMS=1.10D-03 Max=1.47D-01 NDo=     1
 LinEq1:  Iter=  3 NonCon=     1 RMS=5.29D-04 Max=3.54D-02 NDo=     1
 LinEq1:  Iter=  4 NonCon=     1 RMS=3.47D-04 Max=2.17D-02 NDo=     1
 LinEq1:  Iter=  5 NonCon=     1 RMS=2.13D-04 Max=1.54D-02 NDo=     1
 LinEq1:  Iter=  6 NonCon=     1 RMS=1.86D-04 Max=2.31D-02 NDo=     1
 LinEq1:  Iter=  7 NonCon=     1 RMS=1.26D-04 Max=6.79D-03 NDo=     1
 LinEq1:  Iter=  8 NonCon=     1 RMS=7.95D-05 Max=6.78D-03 NDo=     1
 LinEq1:  Iter=  9 NonCon=     1 RMS=4.30D-05 Max=2.62D-03 NDo=     1
 LinEq1:  Iter= 10 NonCon=     1 RMS=2.63D-05 Max=1.60D-03 NDo=     1
 LinEq1:  Iter= 11 NonCon=     1 RMS=1.91D-05 Max=1.54D-03 NDo=     1
 LinEq1:  Iter= 12 NonCon=     1 RMS=1.27D-05 Max=7.29D-04 NDo=     1
 LinEq1:  Iter= 13 NonCon=     1 RMS=6.98D-06 Max=5.16D-04 NDo=     1
 LinEq1:  Iter= 14 NonCon=     1 RMS=3.60D-06 Max=2.11D-04 NDo=     1
 LinEq1:  Iter= 15 NonCon=     1 RMS=2.23D-06 Max=1.81D-04 NDo=     1
 LinEq1:  Iter= 16 NonCon=     1 RMS=1.10D-06 Max=4.54D-05 NDo=     1
 LinEq1:  Iter= 17 NonCon=     1 RMS=7.07D-07 Max=4.48D-05 NDo=     1
 LinEq1:  Iter= 18 NonCon=     1 RMS=2.95D-07 Max=1.66D-05 NDo=     1
 LinEq1:  Iter= 19 NonCon=     1 RMS=1.77D-07 Max=7.88D-06 NDo=     1
 LinEq1:  Iter= 20 NonCon=     1 RMS=1.00D-07 Max=5.39D-06 NDo=     1
 LinEq1:  Iter= 21 NonCon=     1 RMS=4.39D-08 Max=2.23D-06 NDo=     1
 LinEq1:  Iter= 22 NonCon=     1 RMS=2.71D-08 Max=1.26D-06 NDo=     1
 LinEq1:  Iter= 23 NonCon=     1 RMS=1.13D-08 Max=4.41D-07 NDo=     1
 LinEq1:  Iter= 24 NonCon=     1 RMS=6.62D-09 Max=3.29D-07 NDo=     1
 LinEq1:  Iter= 25 NonCon=     1 RMS=2.72D-09 Max=2.07D-07 NDo=     1
 LinEq1:  Iter= 26 NonCon=     1 RMS=1.37D-09 Max=9.80D-08 NDo=     1
 LinEq1:  Iter= 27 NonCon=     1 RMS=7.26D-10 Max=5.64D-08 NDo=     1
 LinEq1:  Iter= 28 NonCon=     1 RMS=3.47D-10 Max=2.18D-08 NDo=     1
 LinEq1:  Iter= 29 NonCon=     1 RMS=1.68D-10 Max=1.11D-08 NDo=     1
 LinEq1:  Iter= 30 NonCon=     1 RMS=8.71D-11 Max=4.41D-09 NDo=     1
 LinEq1:  Iter= 31 NonCon=     1 RMS=4.34D-11 Max=3.08D-09 NDo=     1
 LinEq1:  Iter= 32 NonCon=     1 RMS=2.99D-11 Max=1.45D-09 NDo=     1
 LinEq1:  Iter= 33 NonCon=     0 RMS=2.42D-11 Max=7.66D-10 NDo=     1
 Linear equations converged to 1.000D-10 1.000D-09 after    33 iterations.
 End of Minotr F.D. properties file   721 does not exist.
 End of Minotr F.D. properties file   722 does not exist.
 End of Minotr F.D. properties file   788 does not exist.

 **********************************************************************

            Population analysis using the SCF Density.

 **********************************************************************

 Orbital symmetries:
       Occupied  (A) (A) (A) (A) (A) (A) (A) (A) (A) (A) (A) (A)
                 (A) (A) (A) (A) (A) (A) (A) (A) (A) (A) (A) (A)
                 (A) (A) (A) (A) (A) (A) (A) (A) (A) (A) (A) (A)
                 (A) (A) (A) (A) (A) (A) (A) (A) (A) (A) (A) (A)
                 (A) (A) (A) (A) (A) (A) (A) (A) (A) (A) (A) (A)
                 (A) (A) (A) (A) (A) (A) (A) (A) (A) (A) (A) (A)
                 (A) (A) (A) (A) (A) (A) (A) (A) (A) (A) (A) (A)
                 (A) (A) (A) (A) (A) (A) (A) (A) (A) (A) (A) (A)
                 (A) (A) (A) (A) (A) (A) (A) (A) (A) (A) (A) (A)
                 (A) (A) (A) (A) (A) (A) (A) (A) (A) (A) (A) (A)
                 (A) (A) (A) (A) (A) (A) (A) (A) (A) (A)
       Virtual   (A) (A) (A) (A) (A) (A) (A) (A) (A) (A) (A) (A)
                 (A) (A) (A) (A) (A) (A) (A) (A) (A) (A) (A) (A)
                 (A) (A) (A) (A) (A) (A) (A) (A) (A) (A) (A) (A)
                 (A) (A) (A) (A) (A) (A) (A) (A) (A) (A) (A) (A)
                 (A) (A) (A) (A) (A) (A) (A) (A) (A) (A) (A) (A)
                 (A) (A) (A) (A) (A) (A) (A) (A) (A) (A) (A) (A)
                 (A) (A) (A) (A) (A) (A) (A) (A) (A) (A) (A) (A)
                 (A) (A) (A) (A) (A) (A) (A) (A) (A) (A) (A) (A)
                 (A) (A) (A) (A) (A) (A) (A) (A) (A) (A) (A) (A)
                 (A) (A) (A) (A) (A) (A) (A) (A) (A) (A) (A) (A)
                 (A) (A) (A) (A) (A) (A) (A) (A) (A) (A) (A) (A)
                 (A) (A) (A) (A) (A) (A) (A) (A) (A) (A) (A) (A)
                 (A) (A) (A) (A) (A) (A) (A) (A) (A) (A) (A) (A)
                 (A) (A) (A) (A) (A) (A) (A) (A) (A) (A) (A) (A)
                 (A) (A) (A) (A) (A) (A) (A) (A) (A) (A) (A) (A)
                 (A) (A) (A) (A) (A) (A) (A) (A) (A) (A) (A) (A)
                 (A) (A) (A) (A) (A) (A) (A) (A) (A) (A) (A) (A)
                 (A) (A) (A) (A) (A) (A) (A) (A) (A) (A) (A) (A)
                 (A) (A) (A) (A) (A) (A) (A) (A) (A) (A) (A) (A)
                 (A) (A) (A) (A) (A) (A) (A) (A) (A) (A) (A) (A)
                 (A) (A) (A) (A) (A) (A) (A) (A) (A) (A) (A) (A)
                 (A) (A) (A) (A) (A) (A) (A) (A) (A) (A) (A) (A)
                 (A) (A) (A) (A) (A) (A) (A) (A) (A) (A) (A) (A)
                 (A) (A) (A) (A) (A) (A) (A) (A) (A) (A) (A) (A)
                 (A) (A) (A) (A) (A) (A) (A) (A) (A) (A) (A) (A)
                 (A) (A) (A) (A) (A) (A) (A) (A) (A) (A) (A) (A)
                 (A) (A) (A) (A) (A) (A) (A) (A) (A) (A) (A) (A)
                 (A) (A) (A) (A) (A) (A) (A) (A) (A) (A) (A) (A)
                 (A) (A) (A) (A) (A) (A) (A) (A) (A) (A) (A) (A)
                 (A) (A) (A) (A) (A) (A) (A) (A) (A) (A) (A) (A)
                 (A) (A) (A) (A) (A) (A) (A) (A) (A) (A) (A) (A)
                 (A) (A) (A) (A) (A) (A) (A) (A) (A) (A) (A) (A)
                 (A) (A) (A) (A) (A) (A) (A) (A) (A) (A) (A) (A)
                 (A) (A) (A) (A) (A) (A) (A) (A) (A) (A) (A) (A)
                 (A) (A) (A) (A) (A) (A) (A) (A) (A) (A) (A) (A)
                 (A) (A) (A) (A) (A) (A) (A) (A) (A) (A) (A) (A)
                 (A) (A) (A) (A) (A) (A) (A) (A) (A) (A) (A) (A)
                 (A) (A) (A) (A) (A) (A) (A) (A) (A) (A) (A) (A)
                 (A) (A) (A) (A) (A) (A) (A) (A) (A) (A) (A) (A)
                 (A) (A) (A) (A) (A) (A) (A) (A) (A) (A) (A) (A)
                 (A) (A) (A) (A) (A) (A) (A) (A) (A) (A) (A) (A)
                 (A) (A) (A) (A) (A) (A) (A) (A) (A) (A) (A) (A)
                 (A) (A) (A) (A) (A) (A) (A) (A) (A) (A) (A) (A)
                 (A) (A) (A) (A) (A) (A) (A) (A) (A) (A) (A) (A)
                 (A) (A) (A) (A) (A) (A) (A) (A) (A) (A) (A) (A)
                 (A) (A) (A) (A) (A) (A) (A) (A) (A) (A) (A) (A)
                 (A) (A) (A) (A) (A) (A) (A) (A) (A) (A) (A) (A)
                 (A) (A) (A) (A) (A) (A) (A) (A) (A) (A) (A) (A)
                 (A) (A) (A) (A) (A) (A) (A) (A) (A) (A) (A) (A)
                 (A) (A) (A) (A) (A) (A) (A) (A) (A) (A) (A) (A)
                 (A) (A) (A) (A) (A) (A) (A) (A) (A) (A) (A) (A)
                 (A) (A) (A) (A) (A) (A) (A) (A) (A) (A) (A) (A)
                 (A) (A) (A) (A) (A) (A) (A) (A) (A) (A) (A) (A)
                 (A) (A) (A) (A) (A) (A) (A) (A) (A) (A) (A) (A)
                 (A) (A) (A) (A) (A) (A) (A) (A) (A) (A) (A) (A)
                 (A) (A) (A) (A) (A) (A) (A) (A) (A) (A) (A) (A)
                 (A) (A)
 The electronic state is 1-A.
 Alpha  occ. eigenvalues --  -88.27636 -18.93417 -18.87576 -14.15203 -14.15171
 Alpha  occ. eigenvalues --  -14.14983 -10.13767 -10.06786 -10.06725 -10.05612
 Alpha  occ. eigenvalues --  -10.05445 -10.05373 -10.04167 -10.04130 -10.03832
 Alpha  occ. eigenvalues --  -10.03136 -10.03119 -10.02836 -10.02502 -10.02427
 Alpha  occ. eigenvalues --  -10.02275 -10.02125 -10.01876 -10.01777 -10.01591
 Alpha  occ. eigenvalues --  -10.01567 -10.01483 -10.01470 -10.01429 -10.01312
 Alpha  occ. eigenvalues --  -10.01279 -10.01273 -10.01204 -10.01198 -10.01171
 Alpha  occ. eigenvalues --  -10.01126 -10.01074  -7.86960  -5.89221  -5.88499
 Alpha  occ. eigenvalues --   -5.88263  -1.12170  -1.04874  -1.03260  -0.99568
 Alpha  occ. eigenvalues --   -0.92665  -0.91069  -0.89610  -0.88783  -0.88523
 Alpha  occ. eigenvalues --   -0.86983  -0.83353  -0.80630  -0.80345  -0.79624
 Alpha  occ. eigenvalues --   -0.79003  -0.78491  -0.78191  -0.78070  -0.77349
 Alpha  occ. eigenvalues --   -0.74596  -0.71210  -0.69062  -0.67815  -0.67530
 Alpha  occ. eigenvalues --   -0.67011  -0.65687  -0.65069  -0.64764  -0.64214
 Alpha  occ. eigenvalues --   -0.63819  -0.62203  -0.61315  -0.58516  -0.58486
 Alpha  occ. eigenvalues --   -0.57837  -0.56410  -0.56167  -0.54828  -0.53705
 Alpha  occ. eigenvalues --   -0.53461  -0.53012  -0.52425  -0.51900  -0.51369
 Alpha  occ. eigenvalues --   -0.50631  -0.50351  -0.50105  -0.49999  -0.49451
 Alpha  occ. eigenvalues --   -0.49142  -0.48727  -0.48116  -0.47723  -0.47363
 Alpha  occ. eigenvalues --   -0.47137  -0.47041  -0.46967  -0.44931  -0.44652
 Alpha  occ. eigenvalues --   -0.43948  -0.43528  -0.43475  -0.43313  -0.43219
 Alpha  occ. eigenvalues --   -0.42983  -0.42370  -0.42056  -0.41354  -0.40868
 Alpha  occ. eigenvalues --   -0.40605  -0.39899  -0.39691  -0.39400  -0.39217
 Alpha  occ. eigenvalues --   -0.37671  -0.37462  -0.36801  -0.35727  -0.34145
 Alpha  occ. eigenvalues --   -0.33148  -0.33026  -0.32718  -0.32687  -0.32637
 Alpha  occ. eigenvalues --   -0.32482  -0.31516  -0.31493  -0.28796  -0.24483
 Alpha virt. eigenvalues --   -0.05484  -0.01631   0.00972   0.01429   0.01826
 Alpha virt. eigenvalues --    0.02465   0.03687   0.03802   0.03849   0.04042
 Alpha virt. eigenvalues --    0.04182   0.04503   0.04678   0.05024   0.05276
 Alpha virt. eigenvalues --    0.05841   0.06245   0.06320   0.06923   0.07008
 Alpha virt. eigenvalues --    0.07159   0.07313   0.07619   0.07798   0.07962
 Alpha virt. eigenvalues --    0.08254   0.08735   0.08833   0.09147   0.09480
 Alpha virt. eigenvalues --    0.09561   0.09767   0.09948   0.10359   0.10646
 Alpha virt. eigenvalues --    0.10693   0.11231   0.11502   0.11587   0.12086
 Alpha virt. eigenvalues --    0.12493   0.12876   0.12981   0.13373   0.13685
 Alpha virt. eigenvalues --    0.13888   0.14062   0.14249   0.14399   0.15005
 Alpha virt. eigenvalues --    0.15193   0.15470   0.16028   0.16118   0.16170
 Alpha virt. eigenvalues --    0.16351   0.16552   0.16779   0.17095   0.17339
 Alpha virt. eigenvalues --    0.17542   0.17788   0.17984   0.18087   0.18190
 Alpha virt. eigenvalues --    0.18513   0.18752   0.18933   0.19058   0.19097
 Alpha virt. eigenvalues --    0.19276   0.19480   0.19570   0.19885   0.20205
 Alpha virt. eigenvalues --    0.20466   0.20599   0.20946   0.21030   0.21057
 Alpha virt. eigenvalues --    0.21342   0.21561   0.21737   0.21898   0.22549
 Alpha virt. eigenvalues --    0.22746   0.22989   0.23115   0.23187   0.23364
 Alpha virt. eigenvalues --    0.23487   0.23573   0.23884   0.24067   0.24493
 Alpha virt. eigenvalues --    0.24693   0.24874   0.25005   0.25162   0.25285
 Alpha virt. eigenvalues --    0.25358   0.25710   0.25885   0.26033   0.26286
 Alpha virt. eigenvalues --    0.26415   0.26571   0.26816   0.26846   0.26965
 Alpha virt. eigenvalues --    0.27342   0.27409   0.27584   0.27767   0.27883
 Alpha virt. eigenvalues --    0.28042   0.28149   0.28531   0.28591   0.28864
 Alpha virt. eigenvalues --    0.29002   0.29303   0.29361   0.29489   0.29672
 Alpha virt. eigenvalues --    0.29919   0.30040   0.30362   0.30420   0.30661
 Alpha virt. eigenvalues --    0.30999   0.31083   0.31238   0.31258   0.31536
 Alpha virt. eigenvalues --    0.31662   0.31816   0.32031   0.32122   0.32299
 Alpha virt. eigenvalues --    0.32493   0.32711   0.32957   0.33130   0.33216
 Alpha virt. eigenvalues --    0.33446   0.33591   0.33819   0.34053   0.34249
 Alpha virt. eigenvalues --    0.34499   0.34644   0.34892   0.34969   0.35203
 Alpha virt. eigenvalues --    0.35373   0.35666   0.35797   0.35970   0.36123
 Alpha virt. eigenvalues --    0.36209   0.36743   0.36779   0.37061   0.37261
 Alpha virt. eigenvalues --    0.37535   0.37842   0.37950   0.38258   0.38446
 Alpha virt. eigenvalues --    0.38624   0.38893   0.39199   0.39379   0.39540
 Alpha virt. eigenvalues --    0.40047   0.40267   0.40615   0.40831   0.41262
 Alpha virt. eigenvalues --    0.41673   0.41988   0.42383   0.42506   0.43082
 Alpha virt. eigenvalues --    0.43216   0.43396   0.43712   0.43766   0.44350
 Alpha virt. eigenvalues --    0.44846   0.45121   0.45548   0.45786   0.46267
 Alpha virt. eigenvalues --    0.46837   0.47189   0.47737   0.48608   0.48932
 Alpha virt. eigenvalues --    0.49618   0.50300   0.50644   0.50761   0.52143
 Alpha virt. eigenvalues --    0.52985   0.53689   0.53931   0.54808   0.54995
 Alpha virt. eigenvalues --    0.57197   0.58030   0.58694   0.61361   0.61970
 Alpha virt. eigenvalues --    0.62863   0.64109   0.64454   0.65063   0.65621
 Alpha virt. eigenvalues --    0.65695   0.67397   0.69304   0.70803   0.71383
 Alpha virt. eigenvalues --    0.71804   0.72084   0.72717   0.72885   0.73452
 Alpha virt. eigenvalues --    0.73691   0.73848   0.74223   0.74573   0.74971
 Alpha virt. eigenvalues --    0.75390   0.75496   0.75877   0.75921   0.76478
 Alpha virt. eigenvalues --    0.76638   0.76888   0.77140   0.77534   0.77817
 Alpha virt. eigenvalues --    0.78012   0.78442   0.78774   0.79309   0.79778
 Alpha virt. eigenvalues --    0.79973   0.80159   0.80539   0.81114   0.81270
 Alpha virt. eigenvalues --    0.81679   0.81772   0.82011   0.82365   0.83182
 Alpha virt. eigenvalues --    0.83432   0.84305   0.84643   0.84960   0.85429
 Alpha virt. eigenvalues --    0.85858   0.86100   0.86503   0.86810   0.87143
 Alpha virt. eigenvalues --    0.87332   0.87886   0.88047   0.89084   0.89958
 Alpha virt. eigenvalues --    0.90239   0.90617   0.90894   0.91539   0.92228
 Alpha virt. eigenvalues --    0.92594   0.93075   0.93643   0.93690   0.94044
 Alpha virt. eigenvalues --    0.94451   0.94946   0.95322   0.95888   0.96365
 Alpha virt. eigenvalues --    0.96754   0.96933   0.97075   0.97778   0.98665
 Alpha virt. eigenvalues --    0.99192   0.99857   1.00072   1.00465   1.01007
 Alpha virt. eigenvalues --    1.02054   1.02404   1.02676   1.02991   1.03709
 Alpha virt. eigenvalues --    1.04605   1.05235   1.05779   1.06425   1.06645
 Alpha virt. eigenvalues --    1.07016   1.07783   1.08020   1.08594   1.09520
 Alpha virt. eigenvalues --    1.10123   1.10535   1.10924   1.11690   1.12455
 Alpha virt. eigenvalues --    1.12738   1.12909   1.13715   1.14255   1.14937
 Alpha virt. eigenvalues --    1.15532   1.15939   1.16045   1.16223   1.16665
 Alpha virt. eigenvalues --    1.17745   1.18138   1.18398   1.18778   1.19214
 Alpha virt. eigenvalues --    1.19513   1.19763   1.20429   1.21383   1.21784
 Alpha virt. eigenvalues --    1.22522   1.22866   1.23329   1.24157   1.24768
 Alpha virt. eigenvalues --    1.25319   1.25776   1.26256   1.27029   1.27380
 Alpha virt. eigenvalues --    1.27804   1.28279   1.28475   1.29877   1.30269
 Alpha virt. eigenvalues --    1.30673   1.31342   1.31638   1.31957   1.32088
 Alpha virt. eigenvalues --    1.32815   1.33084   1.34048   1.34724   1.35056
 Alpha virt. eigenvalues --    1.35932   1.35998   1.36319   1.36564   1.37116
 Alpha virt. eigenvalues --    1.37476   1.37693   1.38333   1.38867   1.39417
 Alpha virt. eigenvalues --    1.39746   1.40188   1.40624   1.41131   1.41384
 Alpha virt. eigenvalues --    1.41763   1.42361   1.42996   1.43184   1.43248
 Alpha virt. eigenvalues --    1.43356   1.43777   1.44020   1.44273   1.44730
 Alpha virt. eigenvalues --    1.45095   1.45237   1.45737   1.46363   1.46660
 Alpha virt. eigenvalues --    1.47644   1.47988   1.48739   1.49489   1.49946
 Alpha virt. eigenvalues --    1.51449   1.52563   1.53517   1.54106   1.54569
 Alpha virt. eigenvalues --    1.55321   1.59615   1.60491   1.61057   1.63424
 Alpha virt. eigenvalues --    1.65595   1.66606   1.69412   1.72481   1.73379
 Alpha virt. eigenvalues --    1.73999   1.74343   1.74630   1.75726   1.76533
 Alpha virt. eigenvalues --    1.77026   1.78054   1.78325   1.78584   1.78985
 Alpha virt. eigenvalues --    1.79240   1.80551   1.81731   1.82195   1.82922
 Alpha virt. eigenvalues --    1.84291   1.84770   1.85527   1.86200   1.87657
 Alpha virt. eigenvalues --    1.88119   1.88339   1.88670   1.88883   1.89925
 Alpha virt. eigenvalues --    1.90465   1.90991   1.91213   1.91522   1.92299
 Alpha virt. eigenvalues --    1.92416   1.92960   1.94006   1.95029   1.95867
 Alpha virt. eigenvalues --    1.96723   1.96834   1.97239   1.97648   1.97815
 Alpha virt. eigenvalues --    1.98344   1.98618   1.99299   1.99541   2.00623
 Alpha virt. eigenvalues --    2.00797   2.01390   2.01892   2.02410   2.02560
 Alpha virt. eigenvalues --    2.02654   2.02924   2.03212   2.03303   2.04187
 Alpha virt. eigenvalues --    2.05005   2.05338   2.05446   2.06236   2.07640
 Alpha virt. eigenvalues --    2.07970   2.08883   2.09340   2.10353   2.10760
 Alpha virt. eigenvalues --    2.11006   2.11242   2.13241   2.13924   2.18247
 Alpha virt. eigenvalues --    2.19791   2.20868   2.22886   2.23910   2.25725
 Alpha virt. eigenvalues --    2.26477   2.27388   2.28142   2.28892   2.29081
 Alpha virt. eigenvalues --    2.29729   2.30190   2.30339   2.30629   2.30680
 Alpha virt. eigenvalues --    2.31579   2.32375   2.33113   2.33925   2.35475
 Alpha virt. eigenvalues --    2.37122   2.37283   2.38713   2.38806   2.39068
 Alpha virt. eigenvalues --    2.39449   2.39456   2.39912   2.40051   2.40429
 Alpha virt. eigenvalues --    2.41338   2.42015   2.42439   2.42688   2.42999
 Alpha virt. eigenvalues --    2.43517   2.43794   2.44272   2.45270   2.45959
 Alpha virt. eigenvalues --    2.46668   2.47673   2.47907   2.47977   2.48516
 Alpha virt. eigenvalues --    2.49317   2.50055   2.50287   2.50695   2.51072
 Alpha virt. eigenvalues --    2.51696   2.53655   2.53761   2.53976   2.54388
 Alpha virt. eigenvalues --    2.54787   2.55258   2.56008   2.56571   2.57474
 Alpha virt. eigenvalues --    2.57896   2.58334   2.59104   2.59909   2.60087
 Alpha virt. eigenvalues --    2.60282   2.60473   2.60705   2.60957   2.61077
 Alpha virt. eigenvalues --    2.61533   2.62364   2.63534   2.63739   2.64035
 Alpha virt. eigenvalues --    2.64306   2.64588   2.64845   2.66312   2.66685
 Alpha virt. eigenvalues --    2.68837   2.69608   2.70135   2.70415   2.71995
 Alpha virt. eigenvalues --    2.73424   2.73942   2.74530   2.75118   2.76542
 Alpha virt. eigenvalues --    2.76926   2.77176   2.77950   2.79661   2.81130
 Alpha virt. eigenvalues --    2.82350   2.82724   2.83037   2.84344   2.86175
 Alpha virt. eigenvalues --    2.87307   2.87689   2.89876   2.90447   2.92388
 Alpha virt. eigenvalues --    2.95170   2.95219   2.97952   2.99981   3.00152
 Alpha virt. eigenvalues --    3.01791   3.04733   3.06686   3.07139   3.07654
 Alpha virt. eigenvalues --    3.08588   3.10876   3.11807   3.12201   3.13696
 Alpha virt. eigenvalues --    3.19858   3.20189   3.20642   3.21277   3.22007
 Alpha virt. eigenvalues --    3.25506   3.27100   3.27370   3.28400   3.28932
 Alpha virt. eigenvalues --    3.29759   3.29891   3.30741   3.33396   3.33688
 Alpha virt. eigenvalues --    3.36914   3.37744   3.37875   3.39574   3.40093
 Alpha virt. eigenvalues --    3.44071   3.45840   3.51138   3.53413   3.53772
 Alpha virt. eigenvalues --    3.54427   3.55123   3.66708   3.81387   3.82994
 Alpha virt. eigenvalues --    3.87814   3.89399   3.96913   4.13310   4.19223
 Alpha virt. eigenvalues --    4.22869   4.30643   4.31867   4.32439   4.33463
 Alpha virt. eigenvalues --    4.33922   4.34149   4.34987   4.37612   4.39184
 Alpha virt. eigenvalues --    4.40587   4.41157   4.42891   4.46186   4.47528
 Alpha virt. eigenvalues --    4.48570   4.49604   4.51731   4.53005   4.53892
 Alpha virt. eigenvalues --    4.54299   4.54979   4.56525   4.57453   4.58424
 Alpha virt. eigenvalues --    4.60507   4.62386   4.66488   4.69255   4.80008
 Alpha virt. eigenvalues --    4.84979   4.85638   4.89480   4.93003
          Condensed to atoms (all electrons):
 Mulliken charges:
               1
     1  O   -0.428923
     2  C    0.934138
     3  O   -0.440996
     4  C   -0.160141
     5  C   -0.666256
     6  C   -0.332624
     7  C    0.541173
     8  C   -0.122075
     9  C   -0.091017
    10  C    0.180848
    11  C   -0.627590
    12  C   -0.986291
    13  C    0.474120
    14  C    0.499239
    15  C   -0.604779
    16  C   -0.182982
    17  C   -0.496108
    18  C    0.098764
    19  C   -0.019379
    20  N    0.283576
    21  C   -0.253614
    22  C    0.172801
    23  C   -0.195187
    24  C   -0.166839
    25  C   -0.248730
    26  C    0.004599
    27  C   -0.468790
    28  C    0.150455
    29  C   -0.284997
    30  C   -0.105782
    31  C   -0.278043
    32  C    0.235136
    33  C    0.097952
    34  N   -0.314891
    35  S    0.961567
    36  N   -0.294103
    37  C   -0.317858
    38  H    0.382009
    39  H    0.170521
    40  H    0.146536
    41  H    0.163316
    42  H    0.178157
    43  H    0.150402
    44  H    0.151101
    45  H    0.142911
    46  H    0.152396
    47  H    0.152611
    48  H    0.158557
    49  H    0.154330
    50  H    0.148708
    51  H    0.146794
    52  H    0.149951
    53  H    0.152224
    54  H    0.156234
    55  H    0.149929
    56  H    0.146830
    57  H    0.149801
    58  H    0.150311
 Sum of Mulliken charges =  -0.00000
 Mulliken charges with hydrogens summed into heavy atoms:
               1
     1  O   -0.046914
     2  C    0.934138
     3  O   -0.440996
     4  C   -0.160141
     5  C   -0.495735
     6  C   -0.186088
     7  C    0.541173
     8  C    0.041242
     9  C    0.087140
    10  C    0.180848
    11  C   -0.477189
    12  C   -0.835190
    13  C    0.474120
    14  C    0.499239
    15  C   -0.461868
    16  C   -0.030586
    17  C   -0.496108
    18  C    0.251376
    19  C    0.139177
    20  N    0.283576
    21  C   -0.253614
    22  C    0.327131
    23  C   -0.046479
    24  C   -0.020045
    25  C   -0.098779
    26  C    0.156823
    27  C   -0.468790
    28  C    0.306688
    29  C   -0.135068
    30  C    0.041047
    31  C   -0.128242
    32  C    0.385447
    33  C    0.097952
    34  N   -0.314891
    35  S    0.961567
    36  N   -0.294103
    37  C   -0.317858
 Electronic spatial extent (au):  <R**2>=          34285.2681
 Charge=             -0.0000 electrons
 Dipole moment (field-independent basis, Debye):
    X=              3.2664    Y=             -2.1155    Z=             -0.8242  Tot=              3.9780
 Quadrupole moment (field-independent basis, Debye-Ang):
   XX=           -228.5715   YY=           -203.3750   ZZ=           -220.6911
   XY=             13.4065   XZ=              9.8322   YZ=              2.6430
 Traceless Quadrupole moment (field-independent basis, Debye-Ang):
   XX=            -11.0257   YY=             14.1709   ZZ=             -3.1452
   XY=             13.4065   XZ=              9.8322   YZ=              2.6430
 Octapole moment (field-independent basis, Debye-Ang**2):
  XXX=            219.4669  YYY=              6.9456  ZZZ=             -0.6509  XYY=              4.4864
  XXY=           -146.6936  XXZ=           -115.6232  XZZ=            -16.3877  YZZ=              5.6775
  YYZ=             -2.0101  XYZ=            -20.0467
 Hexadecapole moment (field-independent basis, Debye-Ang**3):
 XXXX=         -41227.7095 YYYY=          -4845.2728 ZZZZ=           -758.3067 XXXY=           1760.8830
 XXXZ=           1369.7347 YYYX=            -16.6624 YYYZ=             90.1973 ZZZX=              5.1297
 ZZZY=             13.9590 XXYY=          -7111.4820 XXZZ=          -7122.0304 YYZZ=           -986.4958
 XXYZ=              2.4242 YYXZ=             18.5305 ZZXY=              1.1806
 N-N= 3.551692296522D+03 E-N=-1.154657106390D+04  KE= 1.888605379678D+03
 Calling FoFJK, ICntrl=  10005127 FMM=F ISym2X=0 I1Cent= 0 IOpClX= 0 NMat=1 NMatS=1 NMatT=0.
 ***** Axes restored to original set *****
 -------------------------------------------------------------------
 Center     Atomic                   Forces (Hartrees/Bohr)
 Number     Number              X              Y              Z
 -------------------------------------------------------------------
      1        8           0.001410897   -0.001230423    0.000802675
      2        6          -0.004657954    0.000463950    0.000050725
      3        8           0.002003528    0.000618556   -0.000716991
      4        6           0.003694427   -0.000374220    0.000078552
      5        6          -0.002259946   -0.000700931    0.001110701
      6        6           0.003304236   -0.003747471    0.000510598
      7        6          -0.012332706    0.000465098   -0.000548581
      8        6           0.003921656    0.003295177   -0.001261673
      9        6          -0.002440541    0.000930110   -0.000790217
     10        6           0.011461959    0.021745856    0.000215500
     11        6          -0.031072006   -0.023617509    0.003553819
     12        6           0.029332787   -0.029669606   -0.005563631
     13        6          -0.015323533    0.028131632   -0.000364225
     14        6           0.028253668   -0.000700772    0.001268007
     15        6          -0.015158885   -0.010972457   -0.005420554
     16        6           0.010799372   -0.009285893   -0.003816876
     17        6          -0.014402549    0.000232536    0.000042841
     18        6           0.010305680    0.009690273    0.003057914
     19        6          -0.015209001    0.010276131    0.005844791
     20        7           0.011274678    0.000332516   -0.000304175
     21        6          -0.001812983   -0.003049069   -0.001282210
     22        6           0.002757021   -0.000179099    0.000388376
     23        6           0.000252086   -0.000051508    0.000670924
     24        6           0.000877619    0.000720751    0.000431127
     25        6           0.000028594    0.001338887   -0.000990920
     26        6          -0.001930144    0.001265980   -0.000519833
     27        6          -0.001834339    0.002800629    0.001491562
     28        6           0.002874468    0.000430410   -0.000486588
     29        6           0.000248937    0.000023433   -0.000756769
     30        6           0.000976813   -0.000677696   -0.000476184
     31        6           0.000052686   -0.001520201    0.001040707
     32        6          -0.002022852   -0.001285968    0.000578869
     33        6          -0.002421877    0.000243856    0.003302163
     34        7          -0.018934105   -0.012250032    0.000512334
     35       16           0.002989743    0.030324063    0.000970486
     36        7           0.013356953   -0.011995006   -0.001652592
     37        6           0.001182025   -0.000241749   -0.001334868
     38        1          -0.000251116    0.000188338   -0.000092743
     39        1           0.000065977    0.000032413    0.000174394
     40        1          -0.000109170   -0.000081587   -0.000204822
     41        1          -0.000708841    0.000120006    0.000830954
     42        1          -0.000062359   -0.000028995   -0.000119896
     43        1          -0.001030118   -0.000628796    0.000479485
     44        1           0.001095069   -0.001526520   -0.000580352
     45        1          -0.000409791    0.000839068    0.000606404
     46        1           0.000030757    0.000315649   -0.000635849
     47        1           0.000135245   -0.000387299    0.000699800
     48        1           0.000844331   -0.000699563   -0.000941548
     49        1          -0.000159967    0.000013806    0.000331502
     50        1           0.000017140    0.000487558   -0.000152030
     51        1           0.000135419    0.000235110    0.000033915
     52        1           0.000394044    0.000174265    0.000103626
     53        1          -0.000029049   -0.000202661   -0.000265476
     54        1          -0.000118015    0.000065301   -0.000285436
     55        1           0.000086839   -0.000523242    0.000196293
     56        1           0.000173294   -0.000229120   -0.000020508
     57        1           0.000409366   -0.000156669   -0.000091288
     58        1          -0.000055465    0.000212703    0.000297793
 -------------------------------------------------------------------
 Cartesian Forces:  Max     0.031072006 RMS     0.007341535

 GradGradGradGradGradGradGradGradGradGradGradGradGradGradGradGradGradGrad
 Berny optimization.
 FormGI is forming the generalized inverse of G from B-inverse, IUseBI=4.
 Internal  Forces:  Max     0.028481443 RMS     0.003977743
 Search for a local minimum.
 Step number   1 out of a maximum of  325
 All quantities printed in internal units (Hartrees-Bohrs-Radians)
[...]
 808,0.00002300,0.00002569,-0.00000580,0.00001684,-0.00000378,-0.000359
 20,-0.00012099,-0.00068930,0.00000426,-0.00005005,-0.00002006,-0.00002
 014,0.00002857,0.00000732,-0.00000369,-0.00000106,0.00000187,0.0000033
 6,0.00000626,-0.00000110,-0.00000752,-0.00000714,-0.00000577,0.0000155
 9,0.00000506,0.00004590,-0.00041300,-0.00081835,0.00050114,-0.00063680
 ,0.00076384,0.00568976,-0.00829151,0.02052341,-0.00193582,-0.12933225,
 0.13077868,0.00657053,0.00728136,-0.00807153,0.00083521,0.00241416,-0.
 00000692,0.00356032,0.00000606,0.00008157,0.00002339,0.00002904,-0.000
 05599,-0.00001604,-0.00000178,0.00001491,0.00000332,-0.00001873,-0.000
 01376,-0.00000094,0.00001253,0.00000355,-0.00000541,0.00000177,-0.0000
 0108,0.00000051,-0.00000037,0.00000071,0.00000038,0.00000109,-0.000001
 03,-0.00000034,0.00000096,0.00000037,-0.00000092,-0.00000081,-0.000000
 13,0.00000002,-0.00000179,-0.00000044,0.00000174,0.00000296,-0.0000005
 4,0.00000048,-0.00000224,0.00000037,-0.00000331,0.00000044,-0.00000099
 ,0.00000171,0.00002264,0.00001418,0.00002359,-0.00000264,0.00000707,0.
 00000605,0.00000161,-0.00000268,-0.00000074,-0.00000058,0.00000091,-0.
 00000128,0.00000097,0.00000078,-0.00000132,-0.00000037,-0.00000316,-0.
 00000077,-0.00000403,0.00000109,-0.00000540,-0.00043103,0.00102106,-0.
 00007986,-0.00069467,-0.00123434,-0.00185524,0.13095727,0.00002021,-0.
 00001671,0.00000302,-0.00005939,0.00001099,0.00000185,0.00002765,0.000
 00530,-0.00000367,0.00002649,-0.00000574,0.00000018,0.00000929,0.00000
 712,-0.00000629,-0.00001035,0.00002872,0.00000262,0.00006414,-0.000005
 41,0.00000060,-0.00001592,-0.00002493,-0.00000096,0.00000376,-0.000007
 76,0.00000254,-0.00009785,-0.00008714,-0.00002030,0.00013950,0.0000715
 5,0.00001154,-0.00013240,0.00010926,0.00003285,0.00021512,-0.00002287,
 -0.00000613,-0.00014401,0.00000503,-0.00000292,0.00001503,0.00002356,0
 .00000363,0.00000120,-0.00002318,0.00003238,-0.00007723,0.00001496,-0.
 00006463,0.00002453,0.00002363,0.00003358,0.00000504,-0.00003488,0.000
 00019,-0.00015544,-0.00013321,-0.00045357,0.00006719,0.00001890,0.0000
 2906,-0.00001129,-0.00000558,-0.00002239,0.00000138,0.00000483,0.00000
 568,0.00000052,-0.00000200,0.00000223,0.00001264,0.00001184,-0.0000008
 7,0.00000312,-0.00000274,0.00002517,-0.00076563,0.00026251,0.00029201,
 0.00143445,0.00221004,0.00131212,-0.00076889,0.00137498,0.00149531,0.1
 3083213,-0.24836261,0.00877250,0.01324338,-0.01380859,-0.00175895,-0.0
 0073637,-0.00075457,0.00462840,-0.00001755,-0.00012534,-0.00003533,-0.
 00003481,0.00007436,0.00001945,-0.00000698,-0.00001654,-0.00000320,0.0
 0001674,0.00000589,-0.00000288,-0.00000776,0.00000202,0.00000907,-0.00
 000368,0.00000296,-0.00000046,0.00000071,-0.00000126,-0.00000010,-0.00
 000221,0.00000161,0.00000089,-0.00000261,0.00000010,0.00000236,0.00000
 071,0.00000060,0.00000021,0.00000296,0.,-0.00000284,-0.00000449,-0.000
 00290,-0.00000178,0.00000245,0.00000128,-0.00000227,-0.00000259,0.0000
 0381,-0.00000213,-0.00000213,-0.00000920,-0.00001237,-0.00000127,-0.00
 000300,-0.00000422,-0.00000677,0.00000472,-0.00000025,-0.00000142,-0.0
 0000220,0.00000083,-0.00000059,-0.00000377,0.00000006,-0.00000271,-0.0
 0000675,-0.00000363,0.00001455,0.00000796,0.00001401,-0.00003220,-0.00
 002013,0.00010740,-0.00085070,-0.00004679,-0.00132381,-0.14177478,0.25
 982212,0.00000415,-0.00000384,0.00000016,-0.00001234,0.00000233,0.0000
 0085,0.00000573,0.00000113,-0.00000137,0.00000607,-0.00000083,0.000000
 04,0.00000040,0.00000052,-0.00000100,-0.00000029,0.00000288,-0.0000000
 4,0.00000559,-0.00000106,-0.00000033,-0.00000151,-0.00000251,-0.000000
 83,0.00000002,-0.00000113,0.00000012,-0.00001034,-0.00001341,-0.000001
 61,0.00001874,0.00000330,0.00000134,-0.00001482,0.00001181,0.00000226,
 0.00002986,0.00000509,0.00000066,-0.00001644,0.00000762,-0.00001054,0.
 00002044,0.00000741,0.00001365,-0.00006322,-0.00001733,0.00004859,0.00
 004432,0.00011515,-0.00007857,0.00007047,0.00000158,0.00008033,-0.0000
 4257,-0.00001511,0.00000974,-0.00057342,-0.00027609,-0.00052642,0.0000
 8236,-0.00001328,-0.00000901,-0.00005114,-0.00001471,0.00003301,0.0000
 0758,-0.00000037,0.00001601,-0.00000405,0.00000655,-0.00001795,-0.0000
 2159,-0.00002644,0.00001332,-0.00001723,0.00002836,0.00004510,0.000548
 62,0.00023880,-0.00106741,0.00559153,0.00135098,0.00128481,0.00946699,
 -0.01590516,0.00396534,0.00682754,0.00890410,-0.04527246,-0.01085538,0
 .01543451,0.00350211,0.00356451,0.00457063,0.00119134,0.00000170,-0.00
 002154,-0.00000367,-0.00000602,0.00001088,-0.00000113,-0.00000658,0.00
 000328,0.00000220,0.00000793,-0.00001009,-0.00000468,-0.00000489,0.000
 01008,0.00000229,-0.00000073,0.00000075,0.00000033,0.00000014,-0.00000
 018,0.00000030,-0.00000048,0.00000035,0.00000033,-0.00000137,0.0000002
 3,0.00000125,0.00000006,0.00000022,0.00000030,0.00000068,-0.00000036,-
 0.00000052,-0.00000147,-0.00000146,-0.00000102,-0.00000074,0.00000036,
 -0.00000431,0.00000334,0.00000078,-0.00000610,0.00002070,0.00000247,-0
 .00001891,-0.00000589,-0.00000022,0.00000216,0.00000919,-0.00000321,-0
 .00000710,-0.00000120,-0.00000115,-0.00000137,0.00000138,0.00000012,-0
 .00000166,-0.00000202,-0.00000531,0.00000022,0.00001860,0.00000898,-0.
 00001161,0.00049327,-0.00077408,0.00008641,-0.00205730,-0.00108952,-0.
 00140674,-0.01077882,-0.01185118,0.03947400,-0.00003180,0.00002620,-0.
 00000558,0.00009562,-0.00001771,-0.00000236,-0.00004357,-0.00000894,0.
 00000503,-0.00004604,0.00001028,0.00000020,-0.00001414,-0.00001260,0.0
 0001125,0.00001400,-0.00004973,-0.00000557,-0.00010330,0.00000635,-0.0
 0000117,0.00002309,0.00004474,-0.00000017,-0.00000441,0.00001132,-0.00
 000519,0.00015878,0.00013791,0.00003187,-0.00021957,-0.00014526,-0.000
 01926,0.00021547,-0.00017712,-0.00005691,-0.00030491,0.00007200,0.0000
 1250,0.00020158,-0.00002056,0.00000641,-0.00001684,-0.00002565,0.00000
 855,-0.00006091,-0.00000558,-0.00004820,0.00018604,0.00019306,0.000133
 02,-0.00003250,-0.00003916,-0.00002388,-0.00002310,0.00005197,-0.00000
 040,-0.00057824,0.00013647,0.00032125,-0.00017349,-0.00025941,-0.00001
 836,-0.00000400,0.00009548,-0.00002386,-0.00003085,-0.00002899,-0.0000
 3188,0.00002492,0.00000108,0.00002047,0.00001349,0.00001867,-0.0000091
 7,0.00005496,-0.00004454,0.00000537,0.00260297,0.00392450,0.00167324,-
 0.00004354,-0.00014776,-0.00066610,0.00329153,-0.00006067,0.00295462,-
 0.00202823,0.00234647,0.00323881,-0.21957737,0.02488205,0.14071851,-0.
 00852152,-0.00025397,0.01025900,0.00007068,0.00016145,0.00004715,0.000
 01978,-0.00010070,-0.00003364,0.00000021,0.00004868,0.00001306,0.00001
 377,-0.00003558,-0.00000667,-0.00003619,0.00002825,-0.00000595,0.00000
 553,-0.00000434,0.00000136,-0.00000159,0.00000212,0.00000059,0.0000034
 1,-0.00000226,-0.00000117,0.00000035,0.00000063,-0.00000134,-0.0000018
 2,-0.00000070,0.00000018,-0.00000534,-0.00000053,0.00000440,0.00000527
 ,0.00000451,0.00000282,-0.00000890,-0.00000344,-0.00000223,0.00000457,
 -0.00000332,0.00000647,-0.00000262,0.00001102,0.00000910,-0.00000473,0
 .00000462,0.00000879,-0.00000663,-0.00000076,0.00000901,-0.00000081,0.
 00000474,-0.00000011,-0.00000082,0.00000317,0.00000232,-0.00000050,0.0
 0000190,0.00000290,-0.00002022,0.00000425,-0.00000291,-0.00035352,-0.0
 0022277,-0.00035763,-0.00022057,0.00014476,0.00015206,-0.00087512,-0.0
 0113643,-0.00180405,0.22724028,0.00001268,-0.00001112,0.00000196,-0.00
 003778,0.00000802,0.00000117,0.00001695,0.00000303,-0.00000232,0.00001
 835,-0.00000432,0.00000004,0.00000576,0.00000525,-0.00000465,-0.000005
 85,0.00001959,0.00000164,0.00004099,-0.00000234,-0.00000022,-0.0000094
 2,-0.00001811,0.00000010,0.00000168,-0.00000456,0.00000151,-0.00006037
 ,-0.00005796,-0.00001249,0.00008844,0.00005988,0.00000804,-0.00008365,
 0.00006990,0.00002193,0.00010520,-0.00002837,-0.00000702,-0.00005945,-
 0.00000584,0.00000040,-0.00000120,-0.00003252,-0.00002127,0.00015022,-
 0.00001729,0.00008444,-0.00012610,-0.00039016,-0.00020594,0.00001313,0
 .00002809,-0.00002071,-0.00000302,-0.00000080,0.00000374,0.00148234,-0
 .00011473,-0.00066090,0.00018853,0.00029019,0.00003399,-0.00000321,-0.
 00005185,-0.00000272,-0.00000327,-0.00000035,0.00000928,-0.00002442,-0
 .00003730,0.00001430,-0.00001286,0.00001689,0.00000665,-0.00005186,-0.
 00002495,0.00000386,0.00331409,-0.00240857,0.00255998,0.00002938,-0.00
 120536,0.00018632,0.00048132,-0.00227409,0.00453208,-0.01849388,0.0061
 0072,0.01387600,0.02450032,-0.05466045,-0.00999904,0.02033249,0.001043
 52,-0.01631974,-0.00002124,-0.00005970,-0.00001503,-0.00000202,0.00004
 035,0.00000650,-0.00000072,-0.00002353,-0.00000410,-0.00001011,0.00001
 404,0.00000127,0.00001163,-0.00000739,0.00000343,-0.00000214,0.0000019
 3,-0.00000025,0.00000070,-0.00000081,-0.00000003,-0.00000137,0.0000009
 2,0.00000083,0.00000008,-0.00000007,0.00000090,0.00000072,0.00000037,0
 .00000016,0.00000257,-0.00000004,-0.00000130,-0.00000322,-0.00000075,-
 0.00000148,0.00001382,0.00000601,-0.00000811,-0.00000500,-0.00000042,-
 0.00000506,-0.00000403,-0.00000106,0.00000561,0.00000182,-0.00000191,0
 .00000076,0.00000540,0.00000287,-0.00000944,0.00000102,-0.00000755,-0.
 00000127,0.00000359,-0.00000650,-0.00000502,-0.00000065,-0.00001437,-0
 .00001551,0.00002789,0.00000908,-0.00000202,-0.00020986,-0.00003380,-0
 .00029492,-0.00094378,0.00017702,0.00072614,-0.00075197,0.00015345,-0.
 00146117,-0.02853195,0.05328001,0.00000854,-0.00000744,0.00000112,-0.0
 0002393,0.00000487,0.00000072,0.00001142,0.00000184,-0.00000168,0.0000
 0963,-0.00000207,0.00000057,0.00000370,0.00000219,-0.00000232,-0.00000
 492,0.00000935,0.00000106,0.00002321,-0.00000311,0.00000014,-0.0000066
 7,-0.00000690,-0.00000068,0.00000154,-0.00000343,0.00000021,-0.0000338
 8,-0.00003342,-0.00000968,0.00005360,0.00001416,0.00000421,-0.00004618
 ,0.00003885,0.00001048,0.00008409,0.00000617,-0.00000236,-0.00005155,-
 0.00001375,0.00000133,-0.00001506,-0.00001259,-0.00000528,0.00005313,-
 0.00002186,0.00000266,-0.00011410,-0.00005396,0.00001411,-0.00002401,0
 .00000517,-0.00003560,0.00000282,0.00000017,0.00000488,0.00022085,0.00
 004160,-0.00001651,0.00005571,0.00001351,-0.00001196,-0.00000335,0.000
 03347,-0.00004437,-0.00003454,-0.00002140,-0.00002583,0.00000668,-0.00
 004525,0.00004255,0.00001918,0.00006082,-0.00000565,-0.00002638,-0.000
 09205,0.00000552,0.00185720,0.00229873,0.00445599,-0.00081181,0.000149
 44,-0.00021741,0.00276633,0.00483806,0.00154582,0.01443058,-0.00401562
 ,-0.00647595,0.14096341,-0.00983066,-0.14854936,-0.00139838,0.00146133
 ,0.00368076,0.00001735,-0.00005736,-0.00001622,-0.00002540,0.00003264,
 0.00000771,-0.00000846,0.00000018,0.00000187,0.00002212,-0.00000822,-0
 .00000603,-0.00002497,0.00001496,0.00000900,-0.00000165,0.00000143,-0.
 00000002,0.00000013,-0.00000049,0.00000011,-0.00000094,0.00000068,0.00
 000045,-0.00000261,0.00000039,0.00000187,-0.00000008,0.00000035,0.0000
 0021,0.00000103,-0.00000038,-0.00000102,-0.00000284,-0.00000017,-0.000
 00031,0.00000321,0.00000108,-0.00000368,0.00000022,-0.00000023,-0.0000
 0279,-0.00002097,0.00000903,-0.00001339,-0.00000168,0.00000027,-0.0000
 0233,-0.00000609,0.00000748,-0.00000164,-0.00000285,-0.00000181,0.0000
 0081,0.00000087,-0.00000367,0.00000038,-0.00000165,-0.00001576,-0.0000
 1461,0.00002338,0.00001428,-0.00000602,-0.00032989,-0.00030014,-0.0004
 8191,0.00073430,-0.00018170,-0.00044778,-0.00195370,-0.00117523,-0.001
 40754,-0.15447929,0.00823233,0.14967626,0.00000933,-0.00000731,0.00000
 082,-0.00002718,0.00000406,0.00000145,0.00001347,0.00000284,-0.0000022
 7,0.00000982,-0.00000186,0.00000044,0.00000513,0.00000291,-0.00000277,
 -0.00000698,0.00001211,0.00000131,0.00003021,-0.00000351,-0.00000100,-
 0.00000945,-0.00000991,-0.00000198,0.00000324,-0.00000480,0.00000083,-
 0.00004393,-0.00004665,-0.00001035,0.00006764,0.00002093,0.00000583,-0
 .00005529,0.00004692,0.00001235,0.00009526,0.00000890,-0.00000763,-0.0
 0002775,-0.00001356,0.00001404,-0.00002596,-0.00000960,0.00002818,0.00
 010917,-0.00014224,0.00001619,-0.00067300,0.00017090,-0.00007627,0.000
 07687,0.00018363,-0.00001794,-0.00004452,0.00000422,-0.00001299,0.0004
 9280,-0.00199328,-0.00236288,0.00015606,0.00040735,0.00013807,-0.00001
 531,0.00017316,-0.00012666,0.00007213,0.00012602,0.00001292,-0.0000918
 6,0.00002843,-0.00007660,-0.00014374,-0.00020131,0.00003273,0.00026290
 ,0.00022543,0.00038825,-0.00128527,-0.01862212,0.01456659,-0.00177019,
 0.00257187,0.00459610,-0.00096534,0.00044075,-0.00020939,0.00085315,0.
 00449924,0.00272502,0.00777827,0.01271538,-0.01106018,-0.06499815,-0.0
 4513649,0.05145347,0.00003195,-0.00008445,-0.00001979,-0.00004754,0.00
 005171,0.00000094,-0.00000512,0.00000635,0.00000609,0.00003681,-0.0000
 0803,-0.00001043,-0.00004149,0.00002148,0.00001325,-0.00000177,0.00000
 146,0.00000007,0.00000004,-0.00000054,0.00000017,-0.00000096,0.0000010
 1,0.00000057,-0.00000331,0.00000065,0.00000281,0.00000017,0.00000042,0
 .00000037,0.00000096,-0.00000029,-0.00000101,-0.00000419,0.00000021,-0
 .00000129,-0.00000038,-0.00000009,-0.00000751,-0.00000709,0.00001963,0
 .00000415,0.00004406,-0.00005783,0.00004314,-0.00000319,-0.00000988,0.
 00000978,-0.00009656,0.00005096,0.00000132,0.00000286,-0.00001257,-0.0
 0000404,-0.00000280,-0.00001592,-0.00001892,-0.00001805,-0.00002942,-0
 .00002410,0.00001644,0.00003050,-0.00010057,-0.00009387,-0.00088803,0.
 00085604,-0.00023819,-0.00028274,-0.00040153,0.00029558,0.00068153,-0.
 00049599,-0.00084861,-0.00138674,-0.00191642,0.06113271,-0.00001593,0.
 00001290,-0.00000292,0.00004815,-0.00000855,-0.00000131,-0.00002195,-0
 .00000462,0.00000231,-0.00002363,0.00000523,0.00000078,-0.00000722,-0.
 00000641,0.00000560,0.00000687,-0.00002505,-0.00000348,-0.00005176,0.0
 0000267,-0.00000283,0.00001149,0.00002269,0.00000061,-0.00000244,0.000
 00544,-0.00000317,0.00008103,0.00006571,0.00001767,-0.00010629,-0.0000
 7698,-0.00000809,0.00010808,-0.00008331,-0.00003116,-0.00014718,0.0000
 3582,-0.00000064,0.00009025,-0.00000190,0.00001697,0.00000425,-0.00002
 538,0.00002350,-0.00002422,0.00000139,-0.00002437,-0.00006047,0.000243
 46,0.00014038,-0.00003125,0.00008106,-0.00000530,-0.00001614,-0.000003
 38,-0.00002456,-0.00094376,-0.00053464,-0.00144980,0.00079843,-0.00006
 536,-0.00058701,0.00002312,0.00000406,0.00005185,-0.00008582,-0.000147
 71,-0.00000522,0.00003731,-0.00009465,0.00008899,0.00003636,0.00015619
 ,-0.00009483,0.00008836,-0.00046707,-0.00041359,0.00233002,0.00411441,
 -0.00250985,0.00172414,0.00165299,0.00058852,0.00031938,-0.00010951,-0
 .00074794,0.00480677,-0.00174186,0.00077812,-0.00783174,-0.01319538,0.
 01567302,-0.04612658,-0.20354494,0.13503346,0.00003646,0.00007910,0.00
 002719,0.00001598,-0.00004642,-0.00001838,-0.00000457,0.00001958,0.000
 00679,0.00000987,-0.00002335,-0.00000680,-0.00002323,0.00002282,-0.000
 00175,0.00000280,-0.00000212,0.00000086,-0.00000079,0.00000109,0.00000
 045,0.00000160,-0.00000107,-0.00000043,-0.00000021,0.00000061,-0.00000
 014,-0.00000098,-0.00000033,0.00000020,-0.00000212,-0.00000027,0.00000
 249,0.00000187,0.00000196,0.00000055,-0.00000460,-0.00000427,-0.000002
 01,0.00000322,0.00000263,-0.00000461,0.00000578,-0.00004298,0.00000494
 ,-0.00001099,-0.00000312,0.00000679,-0.00002376,0.00003575,0.00000355,
 -0.00000146,-0.00000213,-0.00000715,-0.00000223,0.00000716,0.00000805,
 -0.00000636,0.00000728,0.00001272,-0.00003700,0.00006365,0.00009006,0.
 00025043,0.00023461,-0.00006719,-0.00026447,-0.00013809,-0.00018304,-0
 .00038284,-0.00072834,0.00077945,-0.00103823,0.00017778,-0.00138616,0.
 04645824,0.21407118,-0.00001454,0.00001058,-0.00000245,0.00004600,-0.0
 0000631,-0.00000187,-0.00002137,-0.00000555,0.00000260,-0.00002188,0.0
 0000542,0.00000117,-0.00000712,-0.00000686,0.00000435,0.00000676,-0.00
 002376,-0.00000152,-0.00004788,0.00000194,-0.00000166,0.00000977,0.000
 02257,0.00000013,-0.00000180,0.00000514,-0.00000327,0.00007640,0.00006
 498,0.00001566,-0.00009867,-0.00008142,-0.00000852,0.00010122,-0.00007
 506,-0.00002379,-0.00011829,0.00003323,0.00000393,0.00005935,0.0000287
 0,-0.00001178,0.00001300,-0.00004621,0.00001275,-0.00010536,0.00001805
 ,0.00006225,0.00010770,0.00019378,0.00004910,-0.00005504,0.00005510,0.
 00004725,-0.00000460,-0.00003130,-0.00002417,-0.00213237,-0.00074902,-
 0.00146877,0.00078286,-0.00000740,-0.00012291,-0.00012763,-0.00035315,
 0.00027023,0.00009758,0.00007550,0.00004358,-0.00002967,0.00001808,-0.
 00012057,-0.00022563,-0.00024535,0.00010897,-0.00024606,0.00007841,-0.
 00005409,0.00290571,0.01419005,-0.00703579,0.00493020,0.00002230,0.001
 61709,-0.00023537,-0.00076068,-0.00036614,0.00251086,0.00120897,0.0043
 1522,0.00070802,-0.00136476,0.00336125,0.05109893,0.13413968,-0.152570
 23,0.00002876,0.00007460,0.00002418,0.00002070,-0.00004760,-0.00001074
 ,-0.00000964,0.00001595,0.00000516,0.00000844,-0.00002821,-0.00000822,
 -0.00001936,0.00002534,0.00000042,0.00000255,-0.00000168,0.00000073,-0
 .00000063,0.00000104,0.00000047,0.00000132,-0.00000128,-0.00000058,-0.
 00000073,0.00000082,-0.00000019,-0.00000130,-0.00000025,0.00000010,-0.
 00000153,0.00000010,0.00000117,0.00000180,0.00000059,-0.00000094,-0.00
 000045,-0.00000094,-0.00000748,0.00001321,-0.00001683,-0.00002754,0.00
 000141,-0.00002914,-0.00005307,-0.00001380,-0.00000275,0.00000443,-0.0
 0001393,0.00001192,-0.00003293,-0.00000940,0.00001169,-0.00001010,0.00
 000500,0.00001397,-0.00001228,0.00000287,-0.00000313,-0.00000710,0.000
 10239,0.00009532,-0.00019554,0.00025923,0.00077608,-0.00025309,-0.0004
 1404,-0.00021609,-0.00048542,0.00008605,-0.00007938,0.00008532,-0.0020
 4726,-0.00124368,-0.00166087,-0.05796277,-0.14577212,0.15454613\\0.000
 00153,-0.00000045,0.00000067,-0.00000835,-0.00000440,-0.00000217,0.000
 00413,0.00000401,0.00000023,0.00000138,-0.00000464,0.00000121,0.000000
 08,0.00000202,-0.00000206,0.00000526,-0.00000388,0.00000206,-0.0000050
 8,0.00000791,-0.00000304,0.00000073,-0.00000065,0.00000107,-0.00000723
 ,0.00000480,0.00000207,-0.00000852,0.00000847,0.00000913,0.00001391,-0
 .00000233,-0.00000153,-0.00001361,-0.00000487,0.00000109,0.00000081,0.
 00001219,-0.00000684,0.00002537,0.00000968,0.00000446,-0.00002615,-0.0
 0000872,-0.00000378,0.00001127,0.00000320,0.00000158,0.00000495,-0.000
 00648,-0.00000348,0.00001200,0.00000295,-0.00000151,-0.00001796,0.0000
 0191,0.00000162,-0.00000475,-0.00000087,0.00000068,0.00000122,0.000000
 21,0.00000236,0.00000240,-0.00000302,0.00000035,-0.00000051,0.00000208
 ,-0.00000073,0.00000079,0.00000027,0.00000035,0.00000120,0.00000213,0.
 00000011,-0.00000292,-0.00000099,-0.00000069,0.00000206,-0.00000060,-0
 .00000309,0.00000313,0.00000329,0.00000123,-0.00000047,-0.00000145,0.0
 0000086,0.00000116,-0.00000036,-0.00000054,0.00000163,-0.00000265,0.00
 000016,-0.00000302,0.00000243,0.00000115,-0.00002577,0.00001318,0.0000
 1105,-0.00001003,-0.00000839,-0.00000263,0.00000611,-0.00004380,-0.000
 00878,0.00001217,-0.00000041,-0.00000235,0.00002025,0.00000385,-0.0000
 0347,-0.00000018,0.00000044,0.,0.,0.00000056,0.00000040,-0.00000422,0.
 00000129,-0.00000214,-0.00000243,0.00000351,0.00000120,-0.00000061,-0.
 00000046,-0.00000142,0.00000195,0.00000135,0.00000124,0.00000445,0.000
 00263,0.00000034,0.00000219,0.00000304,0.00000167,-0.00000329,0.000001
 77,-0.00000039,-0.00000188,-0.00000156,0.00000082,0.00000613,0.0000017
 9,0.00000106,-0.00000078,0.00000026,-0.00000032,0.00000017,-0.00000060
 ,-0.00000001,0.00000010,-0.00000006,-0.00000012,-0.00000039,0.00000006
 ,-0.00000018,0.00000020,0.00000008,0.00000029,-0.00000072,-0.00000072,
 0.00000012,0.00000012,0.00000075,0.00000020,0.00000011,0.00000027,0.00
 000045,-0.00000039,0.00000015,0.00000026,0.00000026,-0.00000016,-0.000
 00029\\\@


 THE PROGRESS OF RIVERS TO THE SEA IS NOT AS RAPID
 AS THAT OF MAN TO ERROR.
                                              -- VOLTAIRE
 Job cpu time:      11 days  9 hours 19 minutes 57.3 seconds.
 Elapsed time:       0 days 18 hours 20 minutes 29.3 seconds.
 File lengths (MBytes):  RWF=  16413 Int=      0 D2E=      0 Chk=    130 Scr=      1
 Normal termination of Gaussian 16 at Sat May  2 10:46:30 2026.
