 Entering Gaussian System, Link 0=g16
 Input=TPABTDPHCOOH.com
 Output=TPABTDPHCOOH.log
 Initial command:
 /home/programs/g16/l1.exe "/tmp/Gau-900231.inp" -scrdir="/tmp/"
 Entering Link 1 = /home/programs/g16/l1.exe PID=    900233.
  
 Copyright (c) 1988-2017, Gaussian, Inc.  All Rights Reserved.
  
 This is part of the Gaussian(R) 16 program.  It is based on
 the Gaussian(R) 09 system (copyright 2009, Gaussian, Inc.),
 the Gaussian(R) 03 system (copyright 2003, Gaussian, Inc.),
 the Gaussian(R) 98 system (copyright 1998, Gaussian, Inc.),
 the Gaussian(R) 94 system (copyright 1995, Gaussian, Inc.),
 the Gaussian 92(TM) system (copyright 1992, Gaussian, Inc.),
 the Gaussian 90(TM) system (copyright 1990, Gaussian, Inc.),
 the Gaussian 88(TM) system (copyright 1988, Gaussian, Inc.),
 the Gaussian 86(TM) system (copyright 1986, Carnegie Mellon
 University), and the Gaussian 82(TM) system (copyright 1983,
 Carnegie Mellon University). Gaussian is a federally registered
 trademark of Gaussian, Inc.
  
 This software contains proprietary and confidential information,
 including trade secrets, belonging to Gaussian, Inc.
  
 This software is provided under written license and may be
 used, copied, transmitted, or stored only in accord with that
 written license.
  
 The following legend is applicable only to US Government
 contracts under FAR:
  
                    RESTRICTED RIGHTS LEGEND
  
 Use, reproduction and disclosure by the US Government is
 subject to restrictions as set forth in subparagraphs (a)
 and (c) of the Commercial Computer Software - Restricted
 Rights clause in FAR 52.227-19.
  
 Gaussian, Inc.
 340 Quinnipiac St., Bldg. 40, Wallingford CT 06492
  
  
 ---------------------------------------------------------------
 Warning -- This program may not be used in any manner that
 competes with the business of Gaussian, Inc. or will provide
 assistance to any competitor of Gaussian, Inc.  The licensee
 of this program is prohibited from giving any competitor of
 Gaussian, Inc. access to this program.  By using this program,
 the user acknowledges that Gaussian, Inc. is engaged in the
 business of creating and licensing software in the field of
 computational chemistry and represents and warrants to the
 licensee that it is not a competitor of Gaussian, Inc. and that
 it will not use this program in any manner prohibited above.
 ---------------------------------------------------------------
  

 Cite this work as:
 Gaussian 16, Revision B.01,
 M. J. Frisch, G. W. Trucks, H. B. Schlegel, G. E. Scuseria, 
 M. A. Robb, J. R. Cheeseman, G. Scalmani, V. Barone, 
 G. A. Petersson, H. Nakatsuji, X. Li, M. Caricato, A. V. Marenich, 
 J. Bloino, B. G. Janesko, R. Gomperts, B. Mennucci, H. P. Hratchian, 
 J. V. Ortiz, A. F. Izmaylov, J. L. Sonnenberg, D. Williams-Young, 
 F. Ding, F. Lipparini, F. Egidi, J. Goings, B. Peng, A. Petrone, 
 T. Henderson, D. Ranasinghe, V. G. Zakrzewski, J. Gao, N. Rega, 
 G. Zheng, W. Liang, M. Hada, M. Ehara, K. Toyota, R. Fukuda, 
 J. Hasegawa, M. Ishida, T. Nakajima, Y. Honda, O. Kitao, H. Nakai, 
 T. Vreven, K. Throssell, J. A. Montgomery, Jr., J. E. Peralta, 
 F. Ogliaro, M. J. Bearpark, J. J. Heyd, E. N. Brothers, K. N. Kudin, 
 V. N. Staroverov, T. A. Keith, R. Kobayashi, J. Normand, 
 K. Raghavachari, A. P. Rendell, J. C. Burant, S. S. Iyengar, 
 J. Tomasi, M. Cossi, J. M. Millam, M. Klene, C. Adamo, R. Cammi, 
 J. W. Ochterski, R. L. Martin, K. Morokuma, O. Farkas, 
 J. B. Foresman, and D. J. Fox, Gaussian, Inc., Wallingford CT, 2016.
 
 ******************************************
 Gaussian 16:  EM64L-G16RevB.01 20-Dec-2017
                14-May-2026 
 ******************************************
 %chk=mol_opt_s0.chk
 %nproc=15
 Will use up to   15 processors via shared memory.
 %mem=50GB
 ----------------------------------------------------------------------
 # lc-whpbe/6-31+G(d,p) iop(3/108=0174900000) iop(3/107=0174900000) opt
 ----------------------------------------------------------------------
 1/18=20,19=15,26=3,38=1/1,3;
 2/9=110,12=2,17=6,18=5,40=1/2;
 3/5=1,6=6,7=111,11=2,25=1,30=1,71=1,74=-71,107=174900000,108=174900000/1,2,3;
 4//1;
 5/5=2,38=5/2;
 6/7=2,8=2,9=2,10=2,28=1/1;
 7//1,2,3,16;
 1/18=20,19=15,26=3/3(2);
 2/9=110/2;
 99//99;
 2/9=110/2;
 3/5=1,6=6,7=111,11=2,25=1,30=1,71=1,74=-71,107=174900000,108=174900000/1,2,3;
 4/5=5,16=3,69=1/1;
 5/5=2,38=5/2;
 7//1,2,3,16;
 1/18=20,19=15,26=3/3(-5);
 2/9=110/2;
 6/7=2,8=2,9=2,10=2,19=2,28=1/1;
 99/9=1/99;
 ---
 OPT
 ---
 Symbolic Z-matrix:
 Charge =  0 Multiplicity = 1
 O                     10.54832   1.63957  -1.07198 
 C                     10.04677   0.63753  -0.31934 
 O                     10.75623  -0.11544   0.297 
 C                     8.56333   0.57858  -0.34036 
 C                     7.79806   1.46654  -1.09067 
 C                     6.41869   1.3655   -1.08298 
 C                     5.78776   0.38994  -0.31325 
 C                     6.56185  -0.4951    0.43502 
 C                     7.94186  -0.40498   0.41928 
 C                     4.31218   0.29684  -0.2673 
 C                     3.62736   0.24743   0.91079 
 C                     2.20775   0.14863   0.97518 
 C                     1.4192    0.07377  -0.13569 
 C                    -0.05505  -0.01943  -0.05167 
 C                    -0.75724  -1.0153   -0.72816 
 C                    -2.13189  -1.11447  -0.61617 
 C                    -2.84314  -0.21255   0.17445 
 C                    -2.14865   0.78971   0.84656 
 C                    -0.7721    0.88299   0.72934 
 N                    -4.24672  -0.30997   0.28704 
 C                    -5.04405   0.85873   0.26945 
 C                    -6.1328    0.97586   1.13091 
 C                    -6.93236   2.10647   1.09551 
 C                    -6.64617   3.14392   0.21899 
 C                    -5.55276   3.03492  -0.62852 
 C                    -4.75982   1.89785  -0.61364 
 C                    -4.8661   -1.57531   0.41465 
 C                    -4.30753  -2.56122   1.22496 
 C                    -4.92902  -3.79422   1.35011 
 C                    -6.12013  -4.05487   0.68761 
 C                    -6.67919  -3.07106  -0.11605 
 C                    -6.05399  -1.84376  -0.26235 
 C                     2.10072   0.10888  -1.3923 
 N                     1.52932   0.05265  -2.6018 
 S                     2.71308   0.14894  -3.6719 
 N                     3.98828   0.26657  -2.71388 
 C                     3.52522   0.23604  -1.45799 
 H                     11.51083   1.58381  -0.98548 
 H                     8.28399   2.23363  -1.67627 
 H                     5.82218   2.05174  -1.66864 
 H                     6.07456  -1.27009   1.01361 
 H                     8.55539  -1.09243   0.98515 
 H                     4.18215   0.29706   1.83993 
 H                     1.73949   0.11735   1.95114 
 H                    -0.22165  -1.71853  -1.35262 
 H                    -2.6658   -1.89593  -1.14154 
 H                    -2.69371   1.50004   1.45479 
 H                    -0.24478   1.6744    1.24879 
 H                    -6.35283   0.17063   1.81956 
 H                    -7.77794   2.17982   1.76753 
 H                    -7.26868   4.02805   0.19762 
 H                    -5.32222   3.83455  -1.32098 
 H                    -3.91656   1.81033  -1.2866 
 H                    -3.38654  -2.35718   1.7557 
 H                    -4.48582  -4.55111   1.98472 
 H                    -6.6074   -5.01439   0.79519 
 H                    -7.60433  -3.2616   -0.64499 
 H                    -6.48758  -1.08031  -0.89482 
 

 GradGradGradGradGradGradGradGradGradGradGradGradGradGradGradGradGradGrad
 Berny optimization.
 Initialization pass.
                           ----------------------------
                           !    Initial Parameters    !
                           ! (Angstroms and Degrees)  !
 --------------------------                            --------------------------
 ! Name  Definition              Value          Derivative Info.                !
 --------------------------------------------------------------------------------
 ! R1    R(1,2)                  1.3499         estimate D2E/DX2                !
 ! R2    R(1,38)                 0.968          estimate D2E/DX2                !
 ! R3    R(2,3)                  1.2042         estimate D2E/DX2                !
 ! R4    R(2,4)                  1.4848         estimate D2E/DX2                !
 ! R5    R(4,5)                  1.3918         estimate D2E/DX2                !
 ! R6    R(4,9)                  1.3895         estimate D2E/DX2                !
 ! R7    R(5,6)                  1.3831         estimate D2E/DX2                !
 ! R8    R(5,39)                 1.0805         estimate D2E/DX2                !
 ! R9    R(6,7)                  1.3937         estimate D2E/DX2                !
 ! R10   R(6,40)                 1.0815         estimate D2E/DX2                !
 ! R11   R(7,8)                  1.3937         estimate D2E/DX2                !
 ! R12   R(7,10)                 1.4792         estimate D2E/DX2                !
 ! R13   R(8,9)                  1.383          estimate D2E/DX2                !
 ! R14   R(8,41)                 1.083          estimate D2E/DX2                !
 ! R15   R(9,42)                 1.0813         estimate D2E/DX2                !
 ! R16   R(10,11)                1.3636         estimate D2E/DX2                !
 ! R17   R(10,37)                1.4285         estimate D2E/DX2                !
 ! R18   R(11,12)                1.4245         estimate D2E/DX2                !
 ! R19   R(11,43)                1.0833         estimate D2E/DX2                !
 ! R20   R(12,13)                1.3644         estimate D2E/DX2                !
 ! R21   R(12,44)                1.0829         estimate D2E/DX2                !
 ! R22   R(13,14)                1.4796         estimate D2E/DX2                !
 ! R23   R(13,33)                1.43           estimate D2E/DX2                !
 ! R24   R(14,15)                1.3937         estimate D2E/DX2                !
 ! R25   R(14,19)                1.3923         estimate D2E/DX2                !
 ! R26   R(15,16)                1.3828         estimate D2E/DX2                !
 ! R27   R(15,45)                1.0823         estimate D2E/DX2                !
 ! R28   R(16,17)                1.3944         estimate D2E/DX2                !
 ! R29   R(16,46)                1.0825         estimate D2E/DX2                !
 ! R30   R(17,18)                1.3923         estimate D2E/DX2                !
 ! R31   R(17,20)                1.4114         estimate D2E/DX2                !
 ! R32   R(18,19)                1.3847         estimate D2E/DX2                !
 ! R33   R(18,47)                1.0824         estimate D2E/DX2                !
 ! R34   R(19,48)                1.0836         estimate D2E/DX2                !
 ! R35   R(20,21)                1.4149         estimate D2E/DX2                !
 ! R36   R(20,27)                1.4146         estimate D2E/DX2                !
 ! R37   R(21,22)                1.3933         estimate D2E/DX2                !
 ! R38   R(21,26)                1.393          estimate D2E/DX2                !
 ! R39   R(22,23)                1.3852         estimate D2E/DX2                !
 ! R40   R(22,49)                1.0822         estimate D2E/DX2                !
 ! R41   R(23,24)                1.388          estimate D2E/DX2                !
 ! R42   R(23,50)                1.0826         estimate D2E/DX2                !
 ! R43   R(24,25)                1.3877         estimate D2E/DX2                !
 ! R44   R(24,51)                1.0815         estimate D2E/DX2                !
 ! R45   R(25,26)                1.3863         estimate D2E/DX2                !
 ! R46   R(25,52)                1.0826         estimate D2E/DX2                !
 ! R47   R(26,53)                1.0824         estimate D2E/DX2                !
 ! R48   R(27,28)                1.3931         estimate D2E/DX2                !
 ! R49   R(27,32)                1.3934         estimate D2E/DX2                !
 ! R50   R(28,29)                1.3864         estimate D2E/DX2                !
 ! R51   R(28,54)                1.0824         estimate D2E/DX2                !
 ! R52   R(29,30)                1.3877         estimate D2E/DX2                !
 ! R53   R(29,55)                1.0826         estimate D2E/DX2                !
 ! R54   R(30,31)                1.3879         estimate D2E/DX2                !
 ! R55   R(30,56)                1.0815         estimate D2E/DX2                !
 ! R56   R(31,32)                1.3851         estimate D2E/DX2                !
 ! R57   R(31,57)                1.0826         estimate D2E/DX2                !
 ! R58   R(32,58)                1.0821         estimate D2E/DX2                !
 ! R59   R(33,34)                1.3389         estimate D2E/DX2                !
 ! R60   R(33,37)                1.4317         estimate D2E/DX2                !
 ! R61   R(34,35)                1.5986         estimate D2E/DX2                !
 ! R62   R(35,36)                1.5993         estimate D2E/DX2                !
 ! R63   R(36,37)                1.3389         estimate D2E/DX2                !
 ! A1    A(2,1,38)             106.0731         estimate D2E/DX2                !
 ! A2    A(1,2,3)              122.0482         estimate D2E/DX2                !
 ! A3    A(1,2,4)              113.1294         estimate D2E/DX2                !
 ! A4    A(3,2,4)              124.8224         estimate D2E/DX2                !
 ! A5    A(2,4,5)              122.1174         estimate D2E/DX2                !
 ! A6    A(2,4,9)              117.8547         estimate D2E/DX2                !
 ! A7    A(5,4,9)              120.0277         estimate D2E/DX2                !
 ! A8    A(4,5,6)              119.918          estimate D2E/DX2                !
 ! A9    A(4,5,39)             119.8573         estimate D2E/DX2                !
 ! A10   A(6,5,39)             120.2247         estimate D2E/DX2                !
 ! A11   A(5,6,7)              120.3786         estimate D2E/DX2                !
 ! A12   A(5,6,40)             120.0455         estimate D2E/DX2                !
 ! A13   A(7,6,40)             119.5732         estimate D2E/DX2                !
 ! A14   A(6,7,8)              119.3141         estimate D2E/DX2                !
 ! A15   A(6,7,10)             120.8515         estimate D2E/DX2                !
 ! A16   A(8,7,10)             119.8286         estimate D2E/DX2                !
 ! A17   A(7,8,9)              120.445          estimate D2E/DX2                !
 ! A18   A(7,8,41)             119.4296         estimate D2E/DX2                !
 ! A19   A(9,8,41)             120.1119         estimate D2E/DX2                !
 ! A20   A(4,9,8)              119.9098         estimate D2E/DX2                !
 ! A21   A(4,9,42)             118.8394         estimate D2E/DX2                !
 ! A22   A(8,9,42)             121.2497         estimate D2E/DX2                !
 ! A23   A(7,10,11)            122.0124         estimate D2E/DX2                !
 ! A24   A(7,10,37)            121.7568         estimate D2E/DX2                !
 ! A25   A(11,10,37)           116.2259         estimate D2E/DX2                !
 ! A26   A(10,11,12)           122.8247         estimate D2E/DX2                !
 ! A27   A(10,11,43)           118.8268         estimate D2E/DX2                !
 ! A28   A(12,11,43)           118.3444         estimate D2E/DX2                !
 ! A29   A(11,12,13)           122.8873         estimate D2E/DX2                !
 ! A30   A(11,12,44)           118.2723         estimate D2E/DX2                !
 ! A31   A(13,12,44)           118.8342         estimate D2E/DX2                !
 ! A32   A(12,13,14)           122.216          estimate D2E/DX2                !
 ! A33   A(12,13,33)           116.0208         estimate D2E/DX2                !
 ! A34   A(14,13,33)           121.758          estimate D2E/DX2                !
 ! A35   A(13,14,15)           121.2956         estimate D2E/DX2                !
 ! A36   A(13,14,19)           120.2772         estimate D2E/DX2                !
 ! A37   A(15,14,19)           118.4198         estimate D2E/DX2                !
 ! A38   A(14,15,16)           120.8507         estimate D2E/DX2                !
 ! A39   A(14,15,45)           119.6705         estimate D2E/DX2                !
 ! A40   A(16,15,45)           119.4784         estimate D2E/DX2                !
 ! A41   A(15,16,17)           120.4379         estimate D2E/DX2                !
 ! A42   A(15,16,46)           120.1858         estimate D2E/DX2                !
 ! A43   A(17,16,46)           119.3762         estimate D2E/DX2                !
 ! A44   A(16,17,18)           119.0043         estimate D2E/DX2                !
 ! A45   A(16,17,20)           120.5174         estimate D2E/DX2                !
 ! A46   A(18,17,20)           120.4777         estimate D2E/DX2                !
 ! A47   A(17,18,19)           120.2318         estimate D2E/DX2                !
 ! A48   A(17,18,47)           119.5031         estimate D2E/DX2                !
 ! A49   A(19,18,47)           120.2633         estimate D2E/DX2                !
 ! A50   A(14,19,18)           121.0521         estimate D2E/DX2                !
 ! A51   A(14,19,48)           119.4489         estimate D2E/DX2                !
 ! A52   A(18,19,48)           119.498          estimate D2E/DX2                !
 ! A53   A(17,20,21)           120.1574         estimate D2E/DX2                !
 ! A54   A(17,20,27)           120.2889         estimate D2E/DX2                !
 ! A55   A(21,20,27)           119.5535         estimate D2E/DX2                !
 ! A56   A(20,21,22)           120.1399         estimate D2E/DX2                !
 ! A57   A(20,21,26)           120.6018         estimate D2E/DX2                !
 ! A58   A(22,21,26)           119.2557         estimate D2E/DX2                !
 ! A59   A(21,22,23)           120.2563         estimate D2E/DX2                !
 ! A60   A(21,22,49)           119.3276         estimate D2E/DX2                !
 ! A61   A(23,22,49)           120.413          estimate D2E/DX2                !
 ! A62   A(22,23,24)           120.4768         estimate D2E/DX2                !
 ! A63   A(22,23,50)           119.3595         estimate D2E/DX2                !
 ! A64   A(24,23,50)           120.1596         estimate D2E/DX2                !
 ! A65   A(23,24,25)           119.3035         estimate D2E/DX2                !
 ! A66   A(23,24,51)           120.3205         estimate D2E/DX2                !
 ! A67   A(25,24,51)           120.376          estimate D2E/DX2                !
 ! A68   A(24,25,26)           120.5667         estimate D2E/DX2                !
 ! A69   A(24,25,52)           120.027          estimate D2E/DX2                !
 ! A70   A(26,25,52)           119.3983         estimate D2E/DX2                !
 ! A71   A(21,26,25)           120.1288         estimate D2E/DX2                !
 ! A72   A(21,26,53)           119.5238         estimate D2E/DX2                !
 ! A73   A(25,26,53)           120.3474         estimate D2E/DX2                !
 ! A74   A(20,27,28)           120.6622         estimate D2E/DX2                !
 ! A75   A(20,27,32)           120.1189         estimate D2E/DX2                !
 ! A76   A(28,27,32)           119.2159         estimate D2E/DX2                !
 ! A77   A(27,28,29)           120.1441         estimate D2E/DX2                !
 ! A78   A(27,28,54)           119.5371         estimate D2E/DX2                !
 ! A79   A(29,28,54)           120.3187         estimate D2E/DX2                !
 ! A80   A(28,29,30)           120.5789         estimate D2E/DX2                !
 ! A81   A(28,29,55)           119.4177         estimate D2E/DX2                !
 ! A82   A(30,29,55)           119.9953         estimate D2E/DX2                !
 ! A83   A(29,30,31)           119.2783         estimate D2E/DX2                !
 ! A84   A(29,30,56)           120.39           estimate D2E/DX2                !
 ! A85   A(31,30,56)           120.3316         estimate D2E/DX2                !
 ! A86   A(30,31,32)           120.4924         estimate D2E/DX2                !
 ! A87   A(30,31,57)           120.158          estimate D2E/DX2                !
 ! A88   A(32,31,57)           119.3454         estimate D2E/DX2                !
 ! A89   A(27,32,31)           120.2783         estimate D2E/DX2                !
 ! A90   A(27,32,58)           119.3193         estimate D2E/DX2                !
 ! A91   A(31,32,58)           120.3994         estimate D2E/DX2                !
 ! A92   A(13,33,34)           126.1168         estimate D2E/DX2                !
 ! A93   A(13,33,37)           121.1125         estimate D2E/DX2                !
 ! A94   A(34,33,37)           112.7629         estimate D2E/DX2                !
 ! A95   A(33,34,35)           106.6279         estimate D2E/DX2                !
 ! A96   A(34,35,36)           101.1788         estimate D2E/DX2                !
 ! A97   A(35,36,37)           106.5255         estimate D2E/DX2                !
 ! A98   A(10,37,33)           120.9078         estimate D2E/DX2                !
 ! A99   A(10,37,36)           126.1803         estimate D2E/DX2                !
 ! A100  A(33,37,36)           112.9044         estimate D2E/DX2                !
 ! D1    D(38,1,2,3)             0.0811         estimate D2E/DX2                !
 ! D2    D(38,1,2,4)           179.9929         estimate D2E/DX2                !
 ! D3    D(1,2,4,5)              1.1153         estimate D2E/DX2                !
 ! D4    D(1,2,4,9)           -179.0168         estimate D2E/DX2                !
 ! D5    D(3,2,4,5)           -178.9758         estimate D2E/DX2                !
 ! D6    D(3,2,4,9)              0.8921         estimate D2E/DX2                !
 ! D7    D(2,4,5,6)            179.6284         estimate D2E/DX2                !
 ! D8    D(2,4,5,39)            -0.4579         estimate D2E/DX2                !
 ! D9    D(9,4,5,6)             -0.2367         estimate D2E/DX2                !
 ! D10   D(9,4,5,39)           179.677          estimate D2E/DX2                !
 ! D11   D(2,4,9,8)            179.7381         estimate D2E/DX2                !
 ! D12   D(2,4,9,42)            -0.6264         estimate D2E/DX2                !
 ! D13   D(5,4,9,8)             -0.391          estimate D2E/DX2                !
 ! D14   D(5,4,9,42)           179.2445         estimate D2E/DX2                !
 ! D15   D(4,5,6,7)              0.8689         estimate D2E/DX2                !
 ! D16   D(4,5,6,40)          -179.736          estimate D2E/DX2                !
 ! D17   D(39,5,6,7)          -179.0445         estimate D2E/DX2                !
 ! D18   D(39,5,6,40)            0.3506         estimate D2E/DX2                !
 ! D19   D(5,6,7,8)             -0.8668         estimate D2E/DX2                !
 ! D20   D(5,6,7,10)           178.2581         estimate D2E/DX2                !
 ! D21   D(40,6,7,8)           179.7353         estimate D2E/DX2                !
 ! D22   D(40,6,7,10)           -1.1398         estimate D2E/DX2                !
 ! D23   D(6,7,8,9)              0.2353         estimate D2E/DX2                !
 ! D24   D(6,7,8,41)          -178.4261         estimate D2E/DX2                !
 ! D25   D(10,7,8,9)          -178.8987         estimate D2E/DX2                !
 ! D26   D(10,7,8,41)            2.4399         estimate D2E/DX2                !
 ! D27   D(6,7,10,11)         -128.9955         estimate D2E/DX2                !
 ! D28   D(6,7,10,37)           51.8358         estimate D2E/DX2                !
 ! D29   D(8,7,10,11)           50.1249         estimate D2E/DX2                !
 ! D30   D(8,7,10,37)         -129.0438         estimate D2E/DX2                !
 ! D31   D(7,8,9,4)              0.3896         estimate D2E/DX2                !
 ! D32   D(7,8,9,42)          -179.2369         estimate D2E/DX2                !
 ! D33   D(41,8,9,4)           179.0419         estimate D2E/DX2                !
 ! D34   D(41,8,9,42)           -0.5847         estimate D2E/DX2                !
 ! D35   D(7,10,11,12)        -179.5645         estimate D2E/DX2                !
 ! D36   D(7,10,11,43)           1.1869         estimate D2E/DX2                !
 ! D37   D(37,10,11,12)         -0.3525         estimate D2E/DX2                !
 ! D38   D(37,10,11,43)       -179.6011         estimate D2E/DX2                !
 ! D39   D(7,10,37,33)         178.2553         estimate D2E/DX2                !
 ! D40   D(7,10,37,36)          -0.6721         estimate D2E/DX2                !
 ! D41   D(11,10,37,33)         -0.959          estimate D2E/DX2                !
 ! D42   D(11,10,37,36)       -179.8864         estimate D2E/DX2                !
 ! D43   D(10,11,12,13)          1.0844         estimate D2E/DX2                !
 ! D44   D(10,11,12,44)       -179.8345         estimate D2E/DX2                !
 ! D45   D(43,11,12,13)       -179.6635         estimate D2E/DX2                !
 ! D46   D(43,11,12,44)         -0.5825         estimate D2E/DX2                !
 ! D47   D(11,12,13,14)       -179.5845         estimate D2E/DX2                !
 ! D48   D(11,12,13,33)         -0.4023         estimate D2E/DX2                !
 ! D49   D(44,12,13,14)          1.3394         estimate D2E/DX2                !
 ! D50   D(44,12,13,33)       -179.4784         estimate D2E/DX2                !
 ! D51   D(12,13,14,15)       -128.3617         estimate D2E/DX2                !
 ! D52   D(12,13,14,19)         50.6346         estimate D2E/DX2                !
 ! D53   D(33,13,14,15)         52.5026         estimate D2E/DX2                !
 ! D54   D(33,13,14,19)       -128.5011         estimate D2E/DX2                !
 ! D55   D(12,13,33,34)       -179.8194         estimate D2E/DX2                !
 ! D56   D(12,13,33,37)         -0.9128         estimate D2E/DX2                !
 ! D57   D(14,13,33,34)         -0.6331         estimate D2E/DX2                !
 ! D58   D(14,13,33,37)        178.2735         estimate D2E/DX2                !
 ! D59   D(13,14,15,16)        178.3523         estimate D2E/DX2                !
 ! D60   D(13,14,15,45)         -1.8868         estimate D2E/DX2                !
 ! D61   D(19,14,15,16)         -0.6622         estimate D2E/DX2                !
 ! D62   D(19,14,15,45)        179.0987         estimate D2E/DX2                !
 ! D63   D(13,14,19,18)       -178.3437         estimate D2E/DX2                !
 ! D64   D(13,14,19,48)          2.0279         estimate D2E/DX2                !
 ! D65   D(15,14,19,18)          0.6812         estimate D2E/DX2                !
 ! D66   D(15,14,19,48)       -178.9473         estimate D2E/DX2                !
 ! D67   D(14,15,16,17)          0.2701         estimate D2E/DX2                !
 ! D68   D(14,15,16,46)       -179.624          estimate D2E/DX2                !
 ! D69   D(45,15,16,17)       -179.4912         estimate D2E/DX2                !
 ! D70   D(45,15,16,46)          0.6146         estimate D2E/DX2                !
 ! D71   D(15,16,17,18)          0.1182         estimate D2E/DX2                !
 ! D72   D(15,16,17,20)        179.8256         estimate D2E/DX2                !
 ! D73   D(46,16,17,18)       -179.9868         estimate D2E/DX2                !
 ! D74   D(46,16,17,20)         -0.2794         estimate D2E/DX2                !
 ! D75   D(16,17,18,19)         -0.1005         estimate D2E/DX2                !
 ! D76   D(16,17,18,47)        179.4079         estimate D2E/DX2                !
 ! D77   D(20,17,18,19)       -179.8081         estimate D2E/DX2                !
 ! D78   D(20,17,18,47)         -0.2996         estimate D2E/DX2                !
 ! D79   D(16,17,20,21)       -138.6938         estimate D2E/DX2                !
 ! D80   D(16,17,20,27)         41.1431         estimate D2E/DX2                !
 ! D81   D(18,17,20,21)         41.0093         estimate D2E/DX2                !
 ! D82   D(18,17,20,27)       -139.1539         estimate D2E/DX2                !
 ! D83   D(17,18,19,14)         -0.3065         estimate D2E/DX2                !
 ! D84   D(17,18,19,48)        179.3218         estimate D2E/DX2                !
 ! D85   D(47,18,19,14)       -179.8112         estimate D2E/DX2                !
 ! D86   D(47,18,19,48)         -0.1829         estimate D2E/DX2                !
 ! D87   D(17,20,21,22)       -139.4697         estimate D2E/DX2                !
 ! D88   D(17,20,21,26)         41.1133         estimate D2E/DX2                !
 ! D89   D(27,20,21,22)         40.6922         estimate D2E/DX2                !
 ! D90   D(27,20,21,26)       -138.7247         estimate D2E/DX2                !
 ! D91   D(17,20,27,28)         40.9863         estimate D2E/DX2                !
 ! D92   D(17,20,27,32)       -139.6507         estimate D2E/DX2                !
 ! D93   D(21,20,27,28)       -139.1759         estimate D2E/DX2                !
 ! D94   D(21,20,27,32)         40.1871         estimate D2E/DX2                !
 ! D95   D(20,21,22,23)       -178.5914         estimate D2E/DX2                !
 ! D96   D(20,21,22,49)          0.7637         estimate D2E/DX2                !
 ! D97   D(26,21,22,23)          0.8333         estimate D2E/DX2                !
 ! D98   D(26,21,22,49)       -179.8116         estimate D2E/DX2                !
 ! D99   D(20,21,26,25)        179.5822         estimate D2E/DX2                !
 ! D100  D(20,21,26,53)         -0.4203         estimate D2E/DX2                !
 ! D101  D(22,21,26,25)          0.1601         estimate D2E/DX2                !
 ! D102  D(22,21,26,53)       -179.8423         estimate D2E/DX2                !
 ! D103  D(21,22,23,24)         -1.0814         estimate D2E/DX2                !
 ! D104  D(21,22,23,50)        179.6559         estimate D2E/DX2                !
 ! D105  D(49,22,23,24)        179.5706         estimate D2E/DX2                !
 ! D106  D(49,22,23,50)          0.3079         estimate D2E/DX2                !
 ! D107  D(22,23,24,25)          0.3233         estimate D2E/DX2                !
 ! D108  D(22,23,24,51)       -179.6337         estimate D2E/DX2                !
 ! D109  D(50,23,24,25)        179.5801         estimate D2E/DX2                !
 ! D110  D(50,23,24,51)         -0.3768         estimate D2E/DX2                !
 ! D111  D(23,24,25,26)          0.6768         estimate D2E/DX2                !
 ! D112  D(23,24,25,52)        179.6378         estimate D2E/DX2                !
 ! D113  D(51,24,25,26)       -179.3663         estimate D2E/DX2                !
 ! D114  D(51,24,25,52)         -0.4052         estimate D2E/DX2                !
 ! D115  D(24,25,26,21)         -0.9193         estimate D2E/DX2                !
 ! D116  D(24,25,26,53)        179.0832         estimate D2E/DX2                !
 ! D117  D(52,25,26,21)       -179.8868         estimate D2E/DX2                !
 ! D118  D(52,25,26,53)          0.1156         estimate D2E/DX2                !
 ! D119  D(20,27,28,29)        179.5162         estimate D2E/DX2                !
 ! D120  D(20,27,28,54)         -0.4405         estimate D2E/DX2                !
 ! D121  D(32,27,28,29)          0.1475         estimate D2E/DX2                !
 ! D122  D(32,27,28,54)       -179.8092         estimate D2E/DX2                !
 ! D123  D(20,27,32,31)       -178.5422         estimate D2E/DX2                !
 ! D124  D(20,27,32,58)          0.8305         estimate D2E/DX2                !
 ! D125  D(28,27,32,31)          0.83           estimate D2E/DX2                !
 ! D126  D(28,27,32,58)       -179.7973         estimate D2E/DX2                !
 ! D127  D(27,28,29,30)         -0.9021         estimate D2E/DX2                !
 ! D128  D(27,28,29,55)       -179.8647         estimate D2E/DX2                !
 ! D129  D(54,28,29,30)        179.0543         estimate D2E/DX2                !
 ! D130  D(54,28,29,55)          0.0917         estimate D2E/DX2                !
 ! D131  D(28,29,30,31)          0.6709         estimate D2E/DX2                !
 ! D132  D(28,29,30,56)       -179.3917         estimate D2E/DX2                !
 ! D133  D(55,29,30,31)        179.6276         estimate D2E/DX2                !
 ! D134  D(55,29,30,56)         -0.435          estimate D2E/DX2                !
 ! D135  D(29,30,31,32)          0.313          estimate D2E/DX2                !
 ! D136  D(29,30,31,57)        179.5642         estimate D2E/DX2                !
 ! D137  D(56,30,31,32)       -179.6244         estimate D2E/DX2                !
 ! D138  D(56,30,31,57)         -0.3733         estimate D2E/DX2                !
 ! D139  D(30,31,32,27)         -1.0668         estimate D2E/DX2                !
 ! D140  D(30,31,32,58)        179.5673         estimate D2E/DX2                !
 ! D141  D(57,31,32,27)        179.676          estimate D2E/DX2                !
 ! D142  D(57,31,32,58)          0.3101         estimate D2E/DX2                !
 ! D143  D(13,33,34,35)        179.1745         estimate D2E/DX2                !
 ! D144  D(37,33,34,35)          0.1897         estimate D2E/DX2                !
 ! D145  D(13,33,37,10)          1.6394         estimate D2E/DX2                !
 ! D146  D(13,33,37,36)       -179.3005         estimate D2E/DX2                !
 ! D147  D(34,33,37,10)       -179.3185         estimate D2E/DX2                !
 ! D148  D(34,33,37,36)         -0.2584         estimate D2E/DX2                !
 ! D149  D(33,34,35,36)         -0.0723         estimate D2E/DX2                !
 ! D150  D(34,35,36,37)         -0.0717         estimate D2E/DX2                !
 ! D151  D(35,36,37,10)        179.1905         estimate D2E/DX2                !
 ! D152  D(35,36,37,33)          0.1895         estimate D2E/DX2                !
 --------------------------------------------------------------------------------
 Trust Radius=3.00D-01 FncErr=1.00D-07 GrdErr=1.00D-06 EigMax=2.50D+02 EigMin=1.00D-04
 Number of steps in this run=    325 maximum allowed number of steps=    348.
 GradGradGradGradGradGradGradGradGradGradGradGradGradGradGradGradGradGrad

 Stoichiometry    C31H21N3O2S
 Framework group  C1[X(C31H21N3O2S)]
 Deg. of freedom   168
 Full point group                 C1      NOp   1
 Largest Abelian subgroup         C1      NOp   1
 Largest concise Abelian subgroup C1      NOp   1
                         Standard orientation:                         
 ---------------------------------------------------------------------
 Center     Atomic      Atomic             Coordinates (Angstroms)
 Number     Number       Type             X           Y           Z
 ---------------------------------------------------------------------
      1          8           0       10.028927   -0.861258   -0.264790
      2          6           0        9.399827    0.244214   -0.716766
      3          8           0       10.003300    1.182594   -1.170009
      4          6           0        7.922240    0.165758   -0.593874
      5          6           0        7.283413   -0.940215   -0.040903
      6          6           0        5.904061   -0.961933    0.058387
      7          6           0        5.146833    0.110672   -0.408948
      8          6           0        5.794813    1.214114   -0.961191
      9          6           0        7.174660    1.244507   -1.050037
     10          6           0        3.669363    0.082016   -0.342911
     11          6           0        2.891841    0.352710   -1.429879
     12          6           0        1.468161    0.338910   -1.383612
     13          6           0        0.766514    0.075000   -0.243657
     14          6           0       -0.712653    0.055703   -0.214507
     15          6           0       -1.427919    0.794124    0.726555
     16          6           0       -2.810680    0.796072    0.724205
     17          6           0       -3.516548    0.051671   -0.220276
     18          6           0       -2.808135   -0.694654   -1.158215
     19          6           0       -1.423493   -0.691999   -1.149460
     20          7           0       -4.927994    0.049540   -0.221920
     21          6           0       -5.636726   -1.154562   -0.444971
     22          6           0       -6.779099   -1.156460   -1.242587
     23          6           0       -7.491339   -2.328209   -1.438909
     24          6           0       -7.064098   -3.516613   -0.863008
     25          6           0       -5.917612   -3.518814   -0.081164
     26          6           0       -5.210797   -2.346330    0.136988
     27          6           0       -5.643517    1.248968    0.002544
     28          6           0       -5.221890    2.445887   -0.572119
     29          6           0       -5.937015    3.613287   -0.353090
     30          6           0       -7.087521    3.601352    0.422662
     31          6           0       -7.510313    2.408014    0.991435
     32          6           0       -6.790214    1.241369    0.794058
     33          6           0        1.545950   -0.201032    0.922989
     34          7           0        1.069349   -0.487571    2.140892
     35         16           0        2.337785   -0.733774    3.082238
     36          7           0        3.538431   -0.505171    2.050753
     37          6           0        2.976601   -0.214535    0.870716
     38          1           0       10.975225   -0.701963   -0.391909
     39          1           0        7.867149   -1.779786    0.308170
     40          1           0        5.405749   -1.818506    0.491652
     41          1           0        5.209713    2.059513   -1.301453
     42          1           0        7.691373    2.098987   -1.464876
     43          1           0        3.373608    0.576794   -2.373940
     44          1           0        0.923225    0.562539   -2.292331
     45          1           0       -0.895783    1.370939    1.471849
     46          1           0       -3.355379    1.378324    1.456347
     47          1           0       -3.347904   -1.283067   -1.888986
     48          1           0       -0.884170   -1.285869   -1.877934
     49          1           0       -7.109286   -0.231878   -1.697754
     50          1           0       -8.380050   -2.311944   -2.056913
     51          1           0       -7.618839   -4.431158   -1.022796
     52          1           0       -5.577076   -4.437975    0.378447
     53          1           0       -4.325323   -2.349330    0.759524
     54          1           0       -4.333575    2.457146   -1.190439
     55          1           0       -5.600023    4.536446   -0.807240
     56          1           0       -7.648444    4.511950    0.583462
     57          1           0       -8.401929    2.383771    1.604947
     58          1           0       -7.117368    0.313231    1.243945
 ---------------------------------------------------------------------
 Rotational constants (GHZ):           0.2587992           0.0308461           0.0299311
 Standard basis: 6-31+G(d,p) (6D, 7F)
 There are   812 symmetry adapted cartesian basis functions of A   symmetry.
 There are   812 symmetry adapted basis functions of A   symmetry.
   812 basis functions,  1355 primitive gaussians,   812 cartesian basis functions
   130 alpha electrons      130 beta electrons
       nuclear repulsion energy      3584.2822194910 Hartrees.
 NAtoms=   58 NActive=   58 NUniq=   58 SFac= 1.00D+00 NAtFMM=   60 NAOKFM=F Big=F
 Integral buffers will be    131072 words long.
 Raffenetti 2 integral format.
 Two-electron integral symmetry is turned on.
 One-electron integrals computed using PRISM.
 NBasis=   812 RedAO= T EigKep=  1.07D-06  NBF=   812
 NBsUse=   804 1.00D-06 EigRej=  8.74D-07 NBFU=   804
 ExpMin= 4.05D-02 ExpMax= 2.19D+04 ExpMxC= 3.30D+03 IAcc=3 IRadAn=         5 AccDes= 0.00D+00
 Harris functional with IExCor=33909 and IRadAn=       5 diagonalized for initial guess.
 HarFok:  IExCor=33909 AccDes= 0.00D+00 IRadAn=         5 IDoV= 1 UseB2=F ITyADJ=14
 ICtDFT=  3500011 ScaDFX=  1.000000  1.000000  1.000000  1.000000
 FoFCou: FMM=F IPFlag=           0 FMFlag=      100000 FMFlg1=           0
         NFxFlg=           0 DoJE=T BraDBF=F KetDBF=T FulRan=T
         wScrn=  0.000000 ICntrl=       500 IOpCl=  0 I1Cent=   200000004 NGrid=           0
         NMat0=    1 NMatS0=      1 NMatT0=    0 NMatD0=    1 NMtDS0=    0 NMtDT0=    0
 Petite list used in FoFCou.
 Requested convergence on RMS density matrix=1.00D-08 within 128 cycles.
 Requested convergence on MAX density matrix=1.00D-06.
 Requested convergence on             energy=1.00D-06.
 No special actions if energy rises.
 SCF Done:  E(RLC-wHPBE) =  -1905.37769944     A.U. after   18 cycles
            NFock= 18  Conv=0.40D-08     -V/T= 2.0080

 **********************************************************************

            Population analysis using the SCF Density.

 **********************************************************************

 Orbital symmetries:
       Occupied  (A) (A) (A) (A) (A) (A) (A) (A) (A) (A) (A) (A)
                 (A) (A) (A) (A) (A) (A) (A) (A) (A) (A) (A) (A)
                 (A) (A) (A) (A) (A) (A) (A) (A) (A) (A) (A) (A)
                 (A) (A) (A) (A) (A) (A) (A) (A) (A) (A) (A) (A)
                 (A) (A) (A) (A) (A) (A) (A) (A) (A) (A) (A) (A)
                 (A) (A) (A) (A) (A) (A) (A) (A) (A) (A) (A) (A)
                 (A) (A) (A) (A) (A) (A) (A) (A) (A) (A) (A) (A)
                 (A) (A) (A) (A) (A) (A) (A) (A) (A) (A) (A) (A)
                 (A) (A) (A) (A) (A) (A) (A) (A) (A) (A) (A) (A)
                 (A) (A) (A) (A) (A) (A) (A) (A) (A) (A) (A) (A)
                 (A) (A) (A) (A) (A) (A) (A) (A) (A) (A)
       Virtual   (A) (A) (A) (A) (A) (A) (A) (A) (A) (A) (A) (A)
                 (A) (A) (A) (A) (A) (A) (A) (A) (A) (A) (A) (A)
                 (A) (A) (A) (A) (A) (A) (A) (A) (A) (A) (A) (A)
                 (A) (A) (A) (A) (A) (A) (A) (A) (A) (A) (A) (A)
                 (A) (A) (A) (A) (A) (A) (A) (A) (A) (A) (A) (A)
                 (A) (A) (A) (A) (A) (A) (A) (A) (A) (A) (A) (A)
                 (A) (A) (A) (A) (A) (A) (A) (A) (A) (A) (A) (A)
                 (A) (A) (A) (A) (A) (A) (A) (A) (A) (A) (A) (A)
                 (A) (A) (A) (A) (A) (A) (A) (A) (A) (A) (A) (A)
                 (A) (A) (A) (A) (A) (A) (A) (A) (A) (A) (A) (A)
                 (A) (A) (A) (A) (A) (A) (A) (A) (A) (A) (A) (A)
                 (A) (A) (A) (A) (A) (A) (A) (A) (A) (A) (A) (A)
                 (A) (A) (A) (A) (A) (A) (A) (A) (A) (A) (A) (A)
                 (A) (A) (A) (A) (A) (A) (A) (A) (A) (A) (A) (A)
                 (A) (A) (A) (A) (A) (A) (A) (A) (A) (A) (A) (A)
                 (A) (A) (A) (A) (A) (A) (A) (A) (A) (A) (A) (A)
                 (A) (A) (A) (A) (A) (A) (A) (A) (A) (A) (A) (A)
                 (A) (A) (A) (A) (A) (A) (A) (A) (A) (A) (A) (A)
                 (A) (A) (A) (A) (A) (A) (A) (A) (A) (A) (A) (A)
                 (A) (A) (A) (A) (A) (A) (A) (A) (A) (A) (A) (A)
                 (A) (A) (A) (A) (A) (A) (A) (A) (A) (A) (A) (A)
                 (A) (A) (A) (A) (A) (A) (A) (A) (A) (A) (A) (A)
                 (A) (A) (A) (A) (A) (A) (A) (A) (A) (A) (A) (A)
                 (A) (A) (A) (A) (A) (A) (A) (A) (A) (A) (A) (A)
                 (A) (A) (A) (A) (A) (A) (A) (A) (A) (A) (A) (A)
                 (A) (A) (A) (A) (A) (A) (A) (A) (A) (A) (A) (A)
                 (A) (A) (A) (A) (A) (A) (A) (A) (A) (A) (A) (A)
                 (A) (A) (A) (A) (A) (A) (A) (A) (A) (A) (A) (A)
                 (A) (A) (A) (A) (A) (A) (A) (A) (A) (A) (A) (A)
                 (A) (A) (A) (A) (A) (A) (A) (A) (A) (A) (A) (A)
                 (A) (A) (A) (A) (A) (A) (A) (A) (A) (A) (A) (A)
                 (A) (A) (A) (A) (A) (A) (A) (A) (A) (A) (A) (A)
                 (A) (A) (A) (A) (A) (A) (A) (A) (A) (A) (A) (A)
                 (A) (A) (A) (A) (A) (A) (A) (A) (A) (A) (A) (A)
                 (A) (A) (A) (A) (A) (A) (A) (A) (A) (A) (A) (A)
                 (A) (A) (A) (A) (A) (A) (A) (A) (A) (A) (A) (A)
                 (A) (A) (A) (A) (A) (A) (A) (A) (A) (A) (A) (A)
                 (A) (A) (A) (A) (A) (A) (A) (A) (A) (A) (A) (A)
                 (A) (A) (A) (A) (A) (A) (A) (A) (A) (A) (A) (A)
                 (A) (A) (A) (A) (A) (A) (A) (A) (A) (A) (A) (A)
                 (A) (A) (A) (A) (A) (A) (A) (A) (A) (A) (A) (A)
                 (A) (A) (A) (A) (A) (A) (A) (A) (A) (A) (A) (A)
                 (A) (A) (A) (A) (A) (A) (A) (A) (A) (A) (A) (A)
                 (A) (A) (A) (A) (A) (A) (A) (A) (A) (A) (A) (A)
                 (A) (A) (A) (A) (A) (A) (A) (A) (A) (A) (A) (A)
                 (A) (A) (A) (A) (A) (A) (A) (A) (A) (A) (A) (A)
                 (A) (A) (A) (A) (A) (A) (A) (A) (A) (A) (A) (A)
                 (A) (A) (A) (A) (A) (A) (A) (A) (A) (A) (A) (A)
                 (A) (A) (A) (A) (A) (A) (A) (A) (A) (A) (A) (A)
                 (A) (A) (A) (A) (A) (A) (A) (A) (A) (A) (A) (A)
                 (A) (A) (A) (A) (A) (A) (A) (A) (A) (A) (A) (A)
                 (A) (A) (A) (A) (A) (A) (A) (A) (A) (A) (A) (A)
                 (A) (A) (A) (A) (A) (A) (A) (A) (A) (A) (A) (A)
                 (A) (A) (A) (A) (A) (A) (A) (A) (A) (A) (A) (A)
                 (A) (A) (A) (A) (A) (A) (A) (A) (A) (A) (A) (A)
                 (A) (A) (A) (A) (A) (A) (A) (A) (A) (A) (A) (A)
                 (A) (A)
 The electronic state is 1-A.
 Alpha  occ. eigenvalues --  -88.27611 -18.93315 -18.87439 -14.14662 -14.14654
 Alpha  occ. eigenvalues --  -14.14400 -10.13403 -10.06205 -10.06123 -10.04964
 Alpha  occ. eigenvalues --  -10.04765 -10.04753 -10.03569 -10.03524 -10.03244
 Alpha  occ. eigenvalues --  -10.02620 -10.02615 -10.02388 -10.01938 -10.01897
 Alpha  occ. eigenvalues --  -10.01783 -10.01729 -10.01570 -10.01265 -10.01063
 Alpha  occ. eigenvalues --  -10.00879 -10.00863 -10.00855 -10.00846 -10.00784
 Alpha  occ. eigenvalues --  -10.00710 -10.00575 -10.00546 -10.00515 -10.00502
 Alpha  occ. eigenvalues --  -10.00403 -10.00398  -7.87040  -5.89278  -5.88541
 Alpha  occ. eigenvalues --   -5.88370  -1.13092  -1.06436  -1.04057  -0.99809
 Alpha  occ. eigenvalues --   -0.93195  -0.91667  -0.90202  -0.89163  -0.89071
 Alpha  occ. eigenvalues --   -0.87382  -0.83717  -0.81009  -0.80621  -0.79805
 Alpha  occ. eigenvalues --   -0.79389  -0.78700  -0.78491  -0.78185  -0.77570
 Alpha  occ. eigenvalues --   -0.74737  -0.71367  -0.69211  -0.67960  -0.67702
 Alpha  occ. eigenvalues --   -0.67214  -0.66148  -0.65147  -0.64987  -0.64531
 Alpha  occ. eigenvalues --   -0.63910  -0.62367  -0.61503  -0.58786  -0.58768
 Alpha  occ. eigenvalues --   -0.58429  -0.56883  -0.56105  -0.54792  -0.54087
 Alpha  occ. eigenvalues --   -0.53346  -0.53137  -0.52684  -0.52466  -0.51718
 Alpha  occ. eigenvalues --   -0.50967  -0.50743  -0.50251  -0.50087  -0.49826
 Alpha  occ. eigenvalues --   -0.49162  -0.48755  -0.48211  -0.47994  -0.47441
 Alpha  occ. eigenvalues --   -0.47239  -0.47217  -0.47055  -0.45087  -0.44970
 Alpha  occ. eigenvalues --   -0.44127  -0.43704  -0.43419  -0.43416  -0.43293
 Alpha  occ. eigenvalues --   -0.42847  -0.42348  -0.42171  -0.41210  -0.40726
 Alpha  occ. eigenvalues --   -0.40315  -0.40093  -0.39728  -0.39233  -0.39183
 Alpha  occ. eigenvalues --   -0.37927  -0.37354  -0.36939  -0.35655  -0.33952
 Alpha  occ. eigenvalues --   -0.33212  -0.33123  -0.32888  -0.32744  -0.32659
 Alpha  occ. eigenvalues --   -0.32455  -0.31531  -0.31422  -0.29211  -0.24443
 Alpha virt. eigenvalues --   -0.04673  -0.01140   0.01550   0.01707   0.02281
 Alpha virt. eigenvalues --    0.02666   0.03874   0.04152   0.04223   0.04309
 Alpha virt. eigenvalues --    0.04584   0.04907   0.05023   0.05073   0.05448
 Alpha virt. eigenvalues --    0.05598   0.06176   0.06653   0.06733   0.07139
 Alpha virt. eigenvalues --    0.07258   0.07542   0.07691   0.07784   0.07945
 Alpha virt. eigenvalues --    0.08220   0.08765   0.09004   0.09175   0.09495
 Alpha virt. eigenvalues --    0.09539   0.09755   0.09890   0.10314   0.10648
 Alpha virt. eigenvalues --    0.10794   0.11330   0.11444   0.11706   0.12154
 Alpha virt. eigenvalues --    0.12410   0.12953   0.12973   0.13597   0.13768
 Alpha virt. eigenvalues --    0.13787   0.13941   0.14183   0.14506   0.15170
 Alpha virt. eigenvalues --    0.15335   0.15710   0.16068   0.16182   0.16562
 Alpha virt. eigenvalues --    0.16787   0.16829   0.16996   0.17285   0.17387
 Alpha virt. eigenvalues --    0.17499   0.17797   0.18003   0.18209   0.18361
 Alpha virt. eigenvalues --    0.18670   0.18832   0.19015   0.19183   0.19456
 Alpha virt. eigenvalues --    0.19522   0.19743   0.19989   0.20078   0.20245
 Alpha virt. eigenvalues --    0.20402   0.20544   0.21007   0.21266   0.21402
 Alpha virt. eigenvalues --    0.21468   0.21666   0.22028   0.22148   0.22584
 Alpha virt. eigenvalues --    0.22870   0.22959   0.23210   0.23473   0.23523
 Alpha virt. eigenvalues --    0.23822   0.24034   0.24313   0.24516   0.24709
 Alpha virt. eigenvalues --    0.24763   0.24904   0.25148   0.25445   0.25491
 Alpha virt. eigenvalues --    0.25730   0.25998   0.26169   0.26286   0.26434
 Alpha virt. eigenvalues --    0.26550   0.26805   0.27038   0.27131   0.27358
 Alpha virt. eigenvalues --    0.27567   0.27684   0.27855   0.28088   0.28307
 Alpha virt. eigenvalues --    0.28505   0.28577   0.28778   0.28851   0.29049
 Alpha virt. eigenvalues --    0.29245   0.29526   0.29813   0.29847   0.29945
 Alpha virt. eigenvalues --    0.30302   0.30556   0.30669   0.30826   0.31017
 Alpha virt. eigenvalues --    0.31195   0.31234   0.31369   0.31466   0.31738
 Alpha virt. eigenvalues --    0.32013   0.32071   0.32104   0.32518   0.32667
 Alpha virt. eigenvalues --    0.32699   0.33097   0.33223   0.33641   0.33812
 Alpha virt. eigenvalues --    0.33926   0.34223   0.34280   0.34384   0.34525
 Alpha virt. eigenvalues --    0.34750   0.34924   0.35153   0.35273   0.35657
 Alpha virt. eigenvalues --    0.35780   0.36016   0.36083   0.36430   0.36655
 Alpha virt. eigenvalues --    0.36812   0.37264   0.37447   0.37698   0.37743
 Alpha virt. eigenvalues --    0.37966   0.38278   0.38516   0.38667   0.38782
 Alpha virt. eigenvalues --    0.38960   0.39284   0.39444   0.39657   0.39784
 Alpha virt. eigenvalues --    0.40534   0.40906   0.40925   0.41624   0.41856
 Alpha virt. eigenvalues --    0.42294   0.42372   0.42893   0.43159   0.43356
 Alpha virt. eigenvalues --    0.43693   0.44024   0.44373   0.44546   0.44959
 Alpha virt. eigenvalues --    0.44997   0.45398   0.45856   0.46143   0.47037
 Alpha virt. eigenvalues --    0.47251   0.47561   0.48372   0.48933   0.49194
 Alpha virt. eigenvalues --    0.49984   0.50350   0.50547   0.51258   0.52357
 Alpha virt. eigenvalues --    0.52926   0.53371   0.54848   0.55402   0.56477
 Alpha virt. eigenvalues --    0.57620   0.57973   0.60283   0.62968   0.63418
 Alpha virt. eigenvalues --    0.64510   0.64745   0.66251   0.66786   0.67200
 Alpha virt. eigenvalues --    0.67337   0.68853   0.69986   0.71743   0.72130
 Alpha virt. eigenvalues --    0.72514   0.72949   0.73333   0.73643   0.74085
 Alpha virt. eigenvalues --    0.74119   0.74440   0.74827   0.75005   0.75407
 Alpha virt. eigenvalues --    0.75971   0.76541   0.76808   0.76983   0.77079
 Alpha virt. eigenvalues --    0.77551   0.77754   0.77976   0.78301   0.78440
 Alpha virt. eigenvalues --    0.79067   0.79557   0.79772   0.79958   0.80347
 Alpha virt. eigenvalues --    0.80634   0.81263   0.81640   0.81772   0.81933
 Alpha virt. eigenvalues --    0.82219   0.82729   0.82864   0.83031   0.83467
 Alpha virt. eigenvalues --    0.83763   0.84432   0.84809   0.85545   0.85709
 Alpha virt. eigenvalues --    0.85991   0.86657   0.86878   0.87326   0.87407
 Alpha virt. eigenvalues --    0.87928   0.88824   0.89311   0.89844   0.90021
 Alpha virt. eigenvalues --    0.90615   0.90772   0.91340   0.91880   0.92663
 Alpha virt. eigenvalues --    0.92870   0.93309   0.93791   0.93971   0.94232
 Alpha virt. eigenvalues --    0.94783   0.95158   0.95891   0.96310   0.96542
 Alpha virt. eigenvalues --    0.97131   0.97254   0.97694   0.97856   0.98823
 Alpha virt. eigenvalues --    0.99363   0.99650   1.00383   1.01048   1.01389
 Alpha virt. eigenvalues --    1.01816   1.02487   1.02848   1.03450   1.03727
 Alpha virt. eigenvalues --    1.04336   1.05306   1.05622   1.06222   1.06510
 Alpha virt. eigenvalues --    1.07337   1.07535   1.08053   1.09006   1.09175
 Alpha virt. eigenvalues --    1.09768   1.10156   1.11239   1.11967   1.12472
 Alpha virt. eigenvalues --    1.12788   1.13378   1.13859   1.14292   1.15210
 Alpha virt. eigenvalues --    1.15624   1.16969   1.16988   1.17272   1.17651
 Alpha virt. eigenvalues --    1.17956   1.18329   1.18601   1.18946   1.19649
 Alpha virt. eigenvalues --    1.20174   1.20500   1.20802   1.21604   1.21936
 Alpha virt. eigenvalues --    1.22939   1.23275   1.23700   1.24937   1.25350
 Alpha virt. eigenvalues --    1.25645   1.25849   1.26455   1.27217   1.28029
 Alpha virt. eigenvalues --    1.28273   1.28639   1.29331   1.30287   1.30437
 Alpha virt. eigenvalues --    1.31057   1.31754   1.32157   1.32567   1.33258
 Alpha virt. eigenvalues --    1.33674   1.33878   1.34498   1.35048   1.35446
 Alpha virt. eigenvalues --    1.35651   1.36326   1.36607   1.36886   1.37600
 Alpha virt. eigenvalues --    1.38036   1.38514   1.39049   1.39331   1.39987
 Alpha virt. eigenvalues --    1.40332   1.40753   1.41077   1.41700   1.41948
 Alpha virt. eigenvalues --    1.42389   1.42516   1.43252   1.43824   1.43979
 Alpha virt. eigenvalues --    1.44043   1.44301   1.44595   1.44642   1.45376
 Alpha virt. eigenvalues --    1.45701   1.46010   1.46293   1.46523   1.46725
 Alpha virt. eigenvalues --    1.47049   1.48272   1.48803   1.49724   1.51549
 Alpha virt. eigenvalues --    1.52353   1.53276   1.54510   1.54908   1.55773
 Alpha virt. eigenvalues --    1.56693   1.59817   1.61114   1.62692   1.63758
 Alpha virt. eigenvalues --    1.66583   1.68050   1.70951   1.73438   1.74006
 Alpha virt. eigenvalues --    1.74616   1.75582   1.76277   1.76560   1.76789
 Alpha virt. eigenvalues --    1.78605   1.78715   1.79447   1.79961   1.80373
 Alpha virt. eigenvalues --    1.80707   1.81857   1.82988   1.83714   1.85159
 Alpha virt. eigenvalues --    1.85923   1.86373   1.87582   1.88694   1.89430
 Alpha virt. eigenvalues --    1.89790   1.90247   1.90508   1.90682   1.91067
 Alpha virt. eigenvalues --    1.91966   1.92230   1.92713   1.92934   1.94059
 Alpha virt. eigenvalues --    1.94269   1.94448   1.96383   1.96814   1.98013
 Alpha virt. eigenvalues --    1.98310   1.98710   1.98924   1.99205   1.99491
 Alpha virt. eigenvalues --    1.99965   2.00187   2.00749   2.01154   2.01648
 Alpha virt. eigenvalues --    2.02583   2.02951   2.03546   2.03705   2.03940
 Alpha virt. eigenvalues --    2.04173   2.04539   2.04964   2.05697   2.05887
 Alpha virt. eigenvalues --    2.06908   2.07397   2.07495   2.08106   2.09137
 Alpha virt. eigenvalues --    2.09901   2.11189   2.11232   2.11870   2.12113
 Alpha virt. eigenvalues --    2.12563   2.13432   2.14613   2.15370   2.20253
 Alpha virt. eigenvalues --    2.21728   2.22803   2.25391   2.26350   2.27148
 Alpha virt. eigenvalues --    2.28491   2.29141   2.30122   2.30294   2.30762
 Alpha virt. eigenvalues --    2.31062   2.31576   2.32158   2.32396   2.32566
 Alpha virt. eigenvalues --    2.33531   2.34037   2.34880   2.35607   2.36954
 Alpha virt. eigenvalues --    2.39266   2.39526   2.40024   2.40256   2.40332
 Alpha virt. eigenvalues --    2.41022   2.41178   2.41324   2.41778   2.42279
 Alpha virt. eigenvalues --    2.42408   2.43299   2.43644   2.43964   2.44172
 Alpha virt. eigenvalues --    2.44370   2.45094   2.45650   2.47235   2.47296
 Alpha virt. eigenvalues --    2.48565   2.48893   2.49114   2.50016   2.50305
 Alpha virt. eigenvalues --    2.51130   2.51661   2.52011   2.52361   2.52703
 Alpha virt. eigenvalues --    2.54147   2.54260   2.54959   2.55663   2.56111
 Alpha virt. eigenvalues --    2.56427   2.56575   2.57225   2.57572   2.58732
 Alpha virt. eigenvalues --    2.59007   2.59968   2.60507   2.61175   2.61368
 Alpha virt. eigenvalues --    2.61589   2.61949   2.62440   2.62700   2.63022
 Alpha virt. eigenvalues --    2.63328   2.64134   2.64890   2.65691   2.66377
 Alpha virt. eigenvalues --    2.66715   2.66804   2.67324   2.67767   2.68872
 Alpha virt. eigenvalues --    2.70313   2.70625   2.71730   2.72104   2.74033
 Alpha virt. eigenvalues --    2.75126   2.75479   2.76501   2.77829   2.78433
 Alpha virt. eigenvalues --    2.79294   2.79724   2.79926   2.81178   2.82288
 Alpha virt. eigenvalues --    2.82953   2.85197   2.85975   2.87105   2.87270
 Alpha virt. eigenvalues --    2.89355   2.90162   2.91343   2.92736   2.95181
 Alpha virt. eigenvalues --    2.97030   2.97419   3.00064   3.01715   3.02721
 Alpha virt. eigenvalues --    3.03880   3.07597   3.10356   3.10741   3.11536
 Alpha virt. eigenvalues --    3.12185   3.12935   3.14629   3.14891   3.17204
 Alpha virt. eigenvalues --    3.22588   3.22934   3.23396   3.24540   3.24701
 Alpha virt. eigenvalues --    3.28038   3.29779   3.29973   3.31463   3.31849
 Alpha virt. eigenvalues --    3.32083   3.32144   3.33061   3.35877   3.36666
 Alpha virt. eigenvalues --    3.39382   3.40739   3.40890   3.42565   3.43361
 Alpha virt. eigenvalues --    3.47461   3.48998   3.53088   3.56489   3.56906
 Alpha virt. eigenvalues --    3.57941   3.58140   3.70916   3.86187   3.87865
 Alpha virt. eigenvalues --    3.92815   3.94388   3.99215   4.14249   4.20392
 Alpha virt. eigenvalues --    4.26843   4.32654   4.32734   4.33351   4.34309
 Alpha virt. eigenvalues --    4.34604   4.35386   4.36663   4.38442   4.41233
 Alpha virt. eigenvalues --    4.41499   4.43574   4.44874   4.48543   4.49553
 Alpha virt. eigenvalues --    4.49751   4.51072   4.52572   4.53958   4.54679
 Alpha virt. eigenvalues --    4.55250   4.55864   4.57582   4.57943   4.59318
 Alpha virt. eigenvalues --    4.61743   4.63233   4.68975   4.72107   4.82939
 Alpha virt. eigenvalues --    4.87463   4.88125   4.92260   4.95480
          Condensed to atoms (all electrons):
 Mulliken charges:
               1
     1  O   -0.432905
     2  C    0.998660
     3  O   -0.442479
     4  C   -0.173782
     5  C   -0.079003
     6  C   -0.193772
     7  C    0.429095
     8  C   -0.274923
     9  C   -0.638296
    10  C    0.122919
    11  C   -0.652824
    12  C   -0.705448
    13  C    0.419334
    14  C    0.504989
    15  C   -0.351914
    16  C    0.334675
    17  C   -0.727238
    18  C    0.040837
    19  C   -0.531568
    20  N    0.277186
    21  C   -0.620844
    22  C    0.260410
    23  C   -0.221079
    24  C   -0.117532
    25  C   -0.227505
    26  C    0.174009
    27  C   -0.632951
    28  C    0.024328
    29  C   -0.261379
    30  C   -0.083432
    31  C   -0.220422
    32  C    0.446779
    33  C   -0.005667
    34  N   -0.303463
    35  S    0.981405
    36  N   -0.299783
    37  C   -0.222682
    38  H    0.384040
    39  H    0.167499
    40  H    0.151936
    41  H    0.149097
    42  H    0.175793
    43  H    0.153060
    44  H    0.153762
    45  H    0.146930
    46  H    0.150273
    47  H    0.150045
    48  H    0.144197
    49  H    0.150176
    50  H    0.146865
    51  H    0.143645
    52  H    0.146838
    53  H    0.154458
    54  H    0.151301
    55  H    0.146196
    56  H    0.143654
    57  H    0.147188
    58  H    0.149310
 Sum of Mulliken charges =  -0.00000
 Mulliken charges with hydrogens summed into heavy atoms:
               1
     1  O   -0.048865
     2  C    0.998660
     3  O   -0.442479
     4  C   -0.173782
     5  C    0.088496
     6  C   -0.041836
     7  C    0.429095
     8  C   -0.125826
     9  C   -0.462503
    10  C    0.122919
    11  C   -0.499764
    12  C   -0.551686
    13  C    0.419334
    14  C    0.504989
    15  C   -0.204984
    16  C    0.484948
    17  C   -0.727238
    18  C    0.190882
    19  C   -0.387370
    20  N    0.277186
    21  C   -0.620844
    22  C    0.410586
    23  C   -0.074214
    24  C    0.026113
    25  C   -0.080666
    26  C    0.328467
    27  C   -0.632951
    28  C    0.175629
    29  C   -0.115183
    30  C    0.060222
    31  C   -0.073234
    32  C    0.596089
    33  C   -0.005667
    34  N   -0.303463
    35  S    0.981405
    36  N   -0.299783
    37  C   -0.222682
 Electronic spatial extent (au):  <R**2>=          33637.4326
 Charge=              0.0000 electrons
 Dipole moment (field-independent basis, Debye):
    X=             -2.3383    Y=             -0.9835    Z=             -0.5308  Tot=              2.5916
 Quadrupole moment (field-independent basis, Debye-Ang):
   XX=           -223.7753   YY=           -210.6252   ZZ=           -216.3816
   XY=            -14.5461   XZ=              4.8198   YZ=             -0.3837
 Traceless Quadrupole moment (field-independent basis, Debye-Ang):
   XX=             -6.8479   YY=              6.3022   ZZ=              0.5457
   XY=            -14.5461   XZ=              4.8198   YZ=             -0.3837
 Octapole moment (field-independent basis, Debye-Ang**2):
  XXX=           -104.4960  YYY=             -4.8158  ZZZ=             17.8843  XYY=            -32.6198
  XXY=           -169.1589  XXZ=             65.8645  XZZ=             17.7071  YZZ=             -1.5209
  YYZ=              5.3583  XYZ=             -3.5740
 Hexadecapole moment (field-independent basis, Debye-Ang**3):
 XXXX=         -39172.2500 YYYY=          -3368.4366 ZZZZ=          -2030.5998 XXXY=          -1925.9753
 XXXZ=            738.9879 YYYX=            -29.3488 YYYZ=            -64.9024 ZZZX=             23.2131
 ZZZY=            -36.9042 XXYY=          -7172.2772 XXZZ=          -7294.7546 YYZZ=           -969.7228
 XXYZ=            293.9637 YYXZ=             28.0690 ZZXY=            -12.4682
 N-N= 3.584282219491D+03 E-N=-1.161320873587D+04  KE= 1.890321362590D+03
 Calling FoFJK, ICntrl=      2127 FMM=F ISym2X=0 I1Cent= 0 IOpClX= 0 NMat=1 NMatS=1 NMatT=0.
 ***** Axes restored to original set *****
 -------------------------------------------------------------------
 Center     Atomic                   Forces (Hartrees/Bohr)
 Number     Number              X              Y              Z
 -------------------------------------------------------------------
      1        8          -0.005109858    0.010833701   -0.008658015
      2        6          -0.018107153    0.010650863   -0.009054713
      3        8           0.019705838   -0.021051770    0.017283571
      4        6           0.009023036    0.001524377   -0.000729000
      5        6           0.001117564    0.003444025   -0.002688963
      6        6          -0.001731305    0.003111416   -0.002928571
      7        6          -0.009949753   -0.000554123   -0.000211988
      8        6          -0.000976516   -0.003342765    0.003187870
      9        6           0.001371153   -0.003444741    0.003020443
     10        6           0.008573836    0.000592380   -0.009995335
     11        6          -0.008249018   -0.000738587    0.009720656
     12        6           0.008913676    0.001029889    0.008826766
     13        6          -0.009974603   -0.000948733   -0.009285011
     14        6           0.009976134    0.000457937   -0.001230572
     15        6           0.001489895   -0.003584885   -0.003164311
     16        6          -0.001413828   -0.004206727   -0.002612965
     17        6          -0.007689864   -0.000979221    0.000399637
     18        6          -0.000845304    0.004392887    0.003305345
     19        6           0.001045241    0.003715667    0.003442756
     20        7          -0.000079150    0.000000074    0.000020678
     21        6           0.004142606   -0.006063122    0.000347976
     22        6          -0.002406722   -0.003122883    0.003851636
     23        6          -0.003908892    0.000224304    0.003272044
     24        6          -0.003112614    0.004486188    0.000082371
     25        6           0.001484116    0.003572459   -0.003333099
     26        6           0.003992659    0.001283789   -0.003738496
     27        6           0.003195939    0.006547927   -0.000938330
     28        6           0.004647521   -0.000703176    0.003010871
     29        6           0.002461112   -0.003324324    0.002985467
     30        6          -0.002391146   -0.004847365    0.000390869
     31        6          -0.004366692   -0.000724653   -0.002652654
     32        6          -0.003387358    0.002720560   -0.003354603
     33        6          -0.003936136   -0.000503637    0.006704386
     34        7          -0.024258792   -0.002068536    0.003677045
     35       16          -0.001403828   -0.000361893   -0.030742990
     36        7           0.024265635    0.002156938    0.001616194
     37        6           0.004470111    0.000565359    0.006299238
     38        1           0.009891652   -0.000464667    0.000762474
     39        1           0.003669603    0.005256035   -0.004259175
     40        1          -0.003809175    0.004436219   -0.004054209
     41        1          -0.003078545   -0.005116245    0.003931673
     42        1           0.004392384   -0.004872017    0.004172913
     43        1           0.003415769    0.000468813    0.006282161
     44        1          -0.003062255   -0.000298377    0.006668945
     45        1           0.003437888   -0.004457329   -0.004084342
     46        1          -0.003267071   -0.004927146   -0.003701809
     47        1          -0.003309102    0.004590811    0.004147480
     48        1           0.003321579    0.005152042    0.003447712
     49        1          -0.001563760   -0.005176063    0.004829972
     50        1          -0.005854790    0.000575127    0.004691466
     51        1          -0.004471029    0.006449339   -0.000214427
     52        1           0.001763202    0.005471264   -0.004819778
     53        1           0.005485458   -0.000624502   -0.004566696
     54        1           0.006053968    0.001414616    0.003591347
     55        1           0.003283582   -0.005148750    0.004394618
     56        1          -0.003462332   -0.006973232    0.000841281
     57        1          -0.006407680   -0.001391721   -0.003709839
     58        1          -0.003006886    0.004896183   -0.004477970
 -------------------------------------------------------------------
 Cartesian Forces:  Max     0.030742990 RMS     0.006315136

 GradGradGradGradGradGradGradGradGradGradGradGradGradGradGradGradGradGrad
 Berny optimization.
 FormGI is forming the generalized inverse of G from B-inverse, IUseBI=4.
 Internal  Forces:  Max     0.033618491 RMS     0.005546624
 Search for a local minimum.
 Step number   1 out of a maximum of  325
 All quantities printed in internal units (Hartrees-Bohrs-Radians)
 Mixed Optimization -- RFO/linear search
 Second derivative matrix not updated -- first step.
 ITU=  0
     Eigenvalues ---    0.00968   0.01036   0.01041   0.01411   0.01495
     Eigenvalues ---    0.01499   0.01512   0.01540   0.01738   0.01747
     Eigenvalues ---    0.01794   0.01810   0.01821   0.01831   0.01869
     Eigenvalues ---    0.01951   0.01972   0.01972   0.01988   0.02049
     Eigenvalues ---    0.02122   0.02178   0.02185   0.02189   0.02190
     Eigenvalues ---    0.02208   0.02210   0.02222   0.02222   0.02222
     Eigenvalues ---    0.02224   0.02232   0.02232   0.02232   0.02241
     Eigenvalues ---    0.02243   0.02250   0.02250   0.02250   0.02251
     Eigenvalues ---    0.02251   0.02256   0.02256   0.02258   0.02259
     Eigenvalues ---    0.02261   0.02262   0.02266   0.02269   0.02270
     Eigenvalues ---    0.02272   0.02277   0.02355   0.02367   0.02569
     Eigenvalues ---    0.15996   0.15998   0.15998   0.15998   0.15999
     Eigenvalues ---    0.15999   0.15999   0.15999   0.15999   0.15999
     Eigenvalues ---    0.15999   0.16000   0.16000   0.16000   0.16000
     Eigenvalues ---    0.16000   0.16000   0.16000   0.16000   0.16000
     Eigenvalues ---    0.16000   0.21999   0.21999   0.22000   0.22000
     Eigenvalues ---    0.22000   0.22000   0.22479   0.22964   0.22973
     Eigenvalues ---    0.23478   0.23479   0.23999   0.23999   0.24474
     Eigenvalues ---    0.24994   0.24996   0.24997   0.24997   0.24998
     Eigenvalues ---    0.24998   0.24999   0.24999   0.24999   0.25000
     Eigenvalues ---    0.25000   0.25000   0.25000   0.25000   0.25000
     Eigenvalues ---    0.34030   0.34618   0.34659   0.35561   0.35597
     Eigenvalues ---    0.35638   0.35643   0.35680   0.35681   0.35683
     Eigenvalues ---    0.35685   0.35697   0.35704   0.35705   0.35708
     Eigenvalues ---    0.35719   0.35736   0.35746   0.35808   0.35812
     Eigenvalues ---    0.35813   0.35837   0.35934   0.36430   0.39427
     Eigenvalues ---    0.40538   0.41439   0.42786   0.42847   0.42918
     Eigenvalues ---    0.42920   0.43040   0.43074   0.43079   0.43239
     Eigenvalues ---    0.43239   0.43290   0.43775   0.46731   0.46794
     Eigenvalues ---    0.46838   0.47007   0.47014   0.47018   0.47277
     Eigenvalues ---    0.47277   0.47457   0.47660   0.47772   0.47776
     Eigenvalues ---    0.48073   0.48076   0.48446   0.48546   0.49010
     Eigenvalues ---    0.49111   0.50257   0.51335   0.53789   0.54935
     Eigenvalues ---    0.55051   0.56950   1.02727
 RFO step:  Lambda=-1.93077244D-02 EMin= 9.67502280D-03
 Linear search not attempted -- first point.
 Iteration  1 RMS(Cart)=  0.06859214 RMS(Int)=  0.00091362
 Iteration  2 RMS(Cart)=  0.00312330 RMS(Int)=  0.00000797
 Iteration  3 RMS(Cart)=  0.00000538 RMS(Int)=  0.00000761
 Iteration  4 RMS(Cart)=  0.00000000 RMS(Int)=  0.00000761
 Variable       Old X    -DE/DX   Delta X   Delta X   Delta X     New X
                                 (Linear)    (Quad)   (Total)
    R1        2.55086   0.01388   0.00000   0.02435   0.02435   2.57522
    R2        1.82925   0.00993   0.00000   0.01782   0.01782   1.84707
    R3        2.27566   0.03362   0.00000   0.03212   0.03212   2.30778
    R4        2.80580   0.00638   0.00000   0.01774   0.01774   2.82353
    R5        2.63008   0.01300   0.00000   0.02656   0.02656   2.65664
    R6        2.62574   0.01349   0.00000   0.02735   0.02735   2.65309
    R7        2.61366   0.01311   0.00000   0.02597   0.02597   2.63963
    R8        2.04185   0.00769   0.00000   0.02031   0.02031   2.06216
    R9        2.63363   0.01347   0.00000   0.02769   0.02770   2.66132
   R10        2.04383   0.00711   0.00000   0.01884   0.01884   2.06268
   R11        2.63373   0.01367   0.00000   0.02813   0.02813   2.66187
   R12        2.79533   0.00643   0.00000   0.01756   0.01756   2.81289
   R13        2.61356   0.01291   0.00000   0.02558   0.02558   2.63914
   R14        2.04651   0.00715   0.00000   0.01902   0.01902   2.06554
   R15        2.04337   0.00777   0.00000   0.02058   0.02058   2.06395
   R16        2.57677   0.01900   0.00000   0.03543   0.03543   2.61220
   R17        2.69957   0.00804   0.00000   0.01830   0.01831   2.71787
   R18        2.69191   0.00486   0.00000   0.01185   0.01184   2.70376
   R19        2.04716   0.00716   0.00000   0.01908   0.01908   2.06624
   R20        2.57825   0.01859   0.00000   0.03471   0.03470   2.61295
   R21        2.04644   0.00734   0.00000   0.01954   0.01954   2.06598
   R22        2.79600   0.00519   0.00000   0.01420   0.01420   2.81020
   R23        2.70223   0.00769   0.00000   0.01749   0.01749   2.71972
   R24        2.63376   0.01307   0.00000   0.02685   0.02684   2.66060
   R25        2.63106   0.01363   0.00000   0.02787   0.02787   2.65893
   R26        2.61305   0.01243   0.00000   0.02457   0.02457   2.63762
   R27        2.04523   0.00695   0.00000   0.01847   0.01847   2.06370
   R28        2.63508   0.01348   0.00000   0.02783   0.02783   2.66292
   R29        2.04558   0.00697   0.00000   0.01851   0.01851   2.06409
   R30        2.63112   0.01411   0.00000   0.02892   0.02892   2.66004
   R31        2.66725   0.00794   0.00000   0.01736   0.01736   2.68462
   R32        2.61665   0.01214   0.00000   0.02421   0.02421   2.64086
   R33        2.04545   0.00701   0.00000   0.01862   0.01862   2.06408
   R34        2.04774   0.00703   0.00000   0.01876   0.01876   2.06649
   R35        2.67375   0.00835   0.00000   0.01848   0.01848   2.69223
   R36        2.67313   0.00823   0.00000   0.01819   0.01819   2.69133
   R37        2.63290   0.01431   0.00000   0.02948   0.02949   2.66239
   R38        2.63236   0.01402   0.00000   0.02880   0.02881   2.66117
   R39        2.61768   0.01288   0.00000   0.02577   0.02577   2.64345
   R40        2.04497   0.00724   0.00000   0.01923   0.01923   2.06420
   R41        2.62291   0.01294   0.00000   0.02605   0.02605   2.64896
   R42        2.04580   0.00752   0.00000   0.02000   0.02000   2.06580
   R43        2.62238   0.01285   0.00000   0.02579   0.02579   2.64816
   R44        2.04376   0.00785   0.00000   0.02080   0.02080   2.06455
   R45        2.61978   0.01223   0.00000   0.02445   0.02445   2.64422
   R46        2.04585   0.00750   0.00000   0.01994   0.01994   2.06579
   R47        2.04547   0.00716   0.00000   0.01903   0.01903   2.06450
   R48        2.63251   0.01392   0.00000   0.02859   0.02860   2.66110
   R49        2.63308   0.01431   0.00000   0.02950   0.02951   2.66258
   R50        2.61998   0.01213   0.00000   0.02425   0.02425   2.64423
   R51        2.04541   0.00718   0.00000   0.01907   0.01907   2.06448
   R52        2.62230   0.01283   0.00000   0.02575   0.02574   2.64804
   R53        2.04583   0.00752   0.00000   0.01999   0.01999   2.06582
   R54        2.62278   0.01303   0.00000   0.02625   0.02625   2.64903
   R55        2.04377   0.00783   0.00000   0.02075   0.02075   2.06452
   R56        2.61750   0.01287   0.00000   0.02577   0.02577   2.64327
   R57        2.04577   0.00753   0.00000   0.02003   0.02003   2.06579
   R58        2.04481   0.00728   0.00000   0.01931   0.01931   2.06412
   R59        2.53008   0.01438   0.00000   0.02383   0.02383   2.55390
   R60        2.70546   0.01572   0.00000   0.03468   0.03467   2.74013
   R61        3.02101   0.02345   0.00000   0.04478   0.04479   3.06580
   R62        3.02225   0.02354   0.00000   0.04505   0.04506   3.06731
   R63        2.53012   0.01424   0.00000   0.02357   0.02357   2.55369
    A1        1.85132   0.00030   0.00000   0.00165   0.00165   1.85298
    A2        2.13014   0.00054   0.00000   0.00199   0.00199   2.13214
    A3        1.97448  -0.00080   0.00000  -0.00295  -0.00295   1.97153
    A4        2.17856   0.00026   0.00000   0.00096   0.00096   2.17952
    A5        2.13135   0.00073   0.00000   0.00283   0.00283   2.13419
    A6        2.05695   0.00073   0.00000   0.00285   0.00285   2.05980
    A7        2.09488  -0.00147   0.00000  -0.00568  -0.00568   2.08919
    A8        2.09296   0.00077   0.00000   0.00290   0.00290   2.09586
    A9        2.09190  -0.00062   0.00000  -0.00274  -0.00274   2.08916
   A10        2.09832  -0.00015   0.00000  -0.00016  -0.00016   2.09816
   A11        2.10100   0.00094   0.00000   0.00362   0.00362   2.10462
   A12        2.09519  -0.00060   0.00000  -0.00251  -0.00252   2.09267
   A13        2.08695  -0.00034   0.00000  -0.00107  -0.00107   2.08588
   A14        2.08242  -0.00187   0.00000  -0.00719  -0.00719   2.07524
   A15        2.10926   0.00109   0.00000   0.00415   0.00414   2.11340
   A16        2.09140   0.00078   0.00000   0.00301   0.00301   2.09441
   A17        2.10216   0.00096   0.00000   0.00381   0.00381   2.10597
   A18        2.08444  -0.00032   0.00000  -0.00096  -0.00096   2.08348
   A19        2.09635  -0.00064   0.00000  -0.00276  -0.00276   2.09359
   A20        2.09282   0.00068   0.00000   0.00260   0.00259   2.09541
   A21        2.07414  -0.00032   0.00000  -0.00120  -0.00120   2.07294
   A22        2.11621  -0.00036   0.00000  -0.00140  -0.00140   2.11481
   A23        2.12952   0.00001   0.00000   0.00026   0.00027   2.12979
   A24        2.12506   0.00052   0.00000   0.00214   0.00214   2.12720
   A25        2.02853  -0.00053   0.00000  -0.00238  -0.00239   2.02613
   A26        2.14370   0.00007   0.00000   0.00166   0.00164   2.14534
   A27        2.07392   0.00025   0.00000   0.00079   0.00080   2.07472
   A28        2.06550  -0.00032   0.00000  -0.00240  -0.00240   2.06310
   A29        2.14479  -0.00002   0.00000   0.00113   0.00110   2.14589
   A30        2.06424  -0.00011   0.00000  -0.00120  -0.00120   2.06304
   A31        2.07405   0.00013   0.00000   0.00015   0.00016   2.07421
   A32        2.13307  -0.00019   0.00000  -0.00036  -0.00036   2.13271
   A33        2.02494  -0.00018   0.00000  -0.00136  -0.00137   2.02357
   A34        2.12508   0.00037   0.00000   0.00172   0.00173   2.12681
   A35        2.11701   0.00060   0.00000   0.00236   0.00236   2.11937
   A36        2.09923   0.00045   0.00000   0.00180   0.00180   2.10103
   A37        2.06682  -0.00104   0.00000  -0.00418  -0.00418   2.06264
   A38        2.10924   0.00062   0.00000   0.00226   0.00225   2.11149
   A39        2.08864  -0.00032   0.00000  -0.00119  -0.00119   2.08745
   A40        2.08529  -0.00030   0.00000  -0.00109  -0.00110   2.08419
   A41        2.10204   0.00062   0.00000   0.00244   0.00244   2.10448
   A42        2.09764  -0.00055   0.00000  -0.00254  -0.00254   2.09510
   A43        2.08351  -0.00007   0.00000   0.00011   0.00011   2.08361
   A44        2.07702  -0.00130   0.00000  -0.00487  -0.00487   2.07215
   A45        2.10343   0.00045   0.00000   0.00168   0.00168   2.10510
   A46        2.10273   0.00086   0.00000   0.00320   0.00320   2.10593
   A47        2.09844   0.00051   0.00000   0.00209   0.00209   2.10053
   A48        2.08572  -0.00002   0.00000   0.00028   0.00028   2.08601
   A49        2.09899  -0.00050   0.00000  -0.00238  -0.00238   2.09661
   A50        2.11276   0.00059   0.00000   0.00227   0.00227   2.11503
   A51        2.08478  -0.00017   0.00000  -0.00044  -0.00043   2.08434
   A52        2.08563  -0.00042   0.00000  -0.00182  -0.00182   2.08381
   A53        2.09714  -0.00116   0.00000  -0.00431  -0.00431   2.09283
   A54        2.09944  -0.00176   0.00000  -0.00655  -0.00655   2.09289
   A55        2.08660   0.00293   0.00000   0.01086   0.01086   2.09746
   A56        2.09684   0.00192   0.00000   0.00706   0.00704   2.10388
   A57        2.10490  -0.00082   0.00000  -0.00309  -0.00311   2.10179
   A58        2.08140  -0.00110   0.00000  -0.00389  -0.00389   2.07752
   A59        2.09887   0.00015   0.00000   0.00088   0.00089   2.09976
   A60        2.08266   0.00019   0.00000   0.00105   0.00104   2.08370
   A61        2.10160  -0.00034   0.00000  -0.00187  -0.00188   2.09972
   A62        2.10272   0.00027   0.00000   0.00110   0.00110   2.10381
   A63        2.08322  -0.00009   0.00000  -0.00029  -0.00029   2.08292
   A64        2.09718  -0.00018   0.00000  -0.00082  -0.00082   2.09636
   A65        2.08224  -0.00011   0.00000  -0.00082  -0.00083   2.08141
   A66        2.09999   0.00014   0.00000   0.00088   0.00088   2.10087
   A67        2.10096  -0.00003   0.00000  -0.00006  -0.00005   2.10090
   A68        2.10429   0.00015   0.00000   0.00024   0.00023   2.10452
   A69        2.09487   0.00010   0.00000   0.00089   0.00089   2.09575
   A70        2.08389  -0.00025   0.00000  -0.00109  -0.00108   2.08281
   A71        2.09664   0.00064   0.00000   0.00253   0.00254   2.09918
   A72        2.08608  -0.00030   0.00000  -0.00115  -0.00115   2.08494
   A73        2.10046  -0.00034   0.00000  -0.00139  -0.00139   2.09907
   A74        2.10595  -0.00111   0.00000  -0.00414  -0.00417   2.10178
   A75        2.09647   0.00212   0.00000   0.00785   0.00783   2.10430
   A76        2.08071  -0.00102   0.00000  -0.00361  -0.00361   2.07710
[...]
 8968,-0.00000181,0.00004131,0.00002672,0.00001485,0.00000743,-0.000042
 71,-0.00000465,0.00000244,0.00000692,0.00000376,-0.00000494,-0.0000014
 1,-0.00000406,0.00000016,-0.00000081,-0.00001443,-0.00002930,-0.000005
 89,-0.00062882,0.00087097,-0.00039871,-0.00158415,0.00022938,-0.005536
 18,-0.00743416,-0.02277418,-0.00146303,-0.11276583,-0.11767450,-0.0235
 6137,0.00839287,0.01112411,0.00096760,0.00156892,0.00139095,-0.0037118
 9,0.00000583,-0.00004692,-0.00006145,0.00002741,0.00003279,0.00004024,
 -0.00000195,-0.00000723,-0.00000948,-0.00001501,0.00000572,0.00001111,
 0.00000863,0.00000310,-0.00000637,0.00000194,-0.00000049,-0.00000133,-
 0.00000074,-0.00000009,0.00000051,0.00000070,0.00000064,-0.00000054,0.
 00000116,0.00000048,0.00000063,-0.00000030,-0.00000066,-0.00000025,-0.
 00000133,-0.00000172,0.00000120,0.00000277,0.00000040,0.00000011,-0.00
 000299,-0.00000595,-0.00000563,0.00001852,-0.00000763,-0.00002599,-0.0
 0000012,0.00000255,-0.00000356,-0.00000173,-0.00000078,0.00000349,-0.0
 0000429,-0.00000172,0.00000339,-0.00000058,0.00000283,0.00000160,0.000
 00089,-0.00000060,0.00000095,-0.00000037,-0.00000100,0.00000090,0.0000
 0015,0.00000200,0.00000032,-0.00039326,-0.00112043,-0.00010191,-0.0004
 3959,0.00070462,0.00201968,0.11372482,-0.00002224,-0.00000111,0.000014
 44,0.00006044,0.00000825,-0.00000383,-0.00002683,-0.00000464,-0.000009
 22,-0.00002675,-0.00000387,-0.00000298,-0.00000399,-0.00000087,-0.0000
 0831,0.00001547,-0.00000948,-0.00002520,-0.00006701,-0.00000611,-0.000
 00022,0.00001192,0.00001468,0.00002617,-0.00000941,-0.00000358,0.00000
 990,0.00010012,-0.00004492,-0.00008168,-0.00014082,0.00002857,0.000076
 95,0.00013805,0.00008461,0.00007986,-0.00022112,-0.00003320,-0.0000035
 2,0.00014581,0.00001720,-0.00001182,-0.00001198,-0.00001699,-0.0000297
 2,-0.00000790,0.00001372,0.00002275,0.00008351,0.00000499,-0.00005655,
 -0.00001214,-0.00002128,0.00001735,-0.00000862,0.00000557,0.00002593,-
 0.00000913,-0.00000843,-0.00028488,-0.00004649,0.00001359,0.00004159,-
 0.00000357,-0.00001039,0.00001026,-0.00001918,0.00001598,0.00000120,-0
 .00000021,-0.00000444,0.00000566,-0.00000033,0.00000396,0.00000302,-0.
 00000396,0.00000067,-0.00002979,0.00083692,0.00025793,0.00042208,-0.00
 044736,0.00165734,0.00092933,0.00174982,0.00256148,0.00121189,-0.11768
 984,-0.26528391,-0.02313802,-0.01345914,-0.01618410,-0.00434318,0.0021
 0692,-0.00221082,0.00343446,0.00001973,-0.00008261,-0.00010661,0.00004
 058,0.00004678,0.00006296,0.00000449,-0.00000836,-0.00001594,-0.000015
 83,0.00000168,0.00000937,0.00000503,0.00000746,-0.00000482,0.00000408,
 0.00000001,-0.00000255,-0.00000094,0.00000034,0.00000101,0.00000210,0.
 00000223,-0.00000100,0.00000227,0.00000149,0.00000108,-0.00000067,-0.0
 0000064,-0.00000055,-0.00000267,-0.00000325,0.00000162,0.00000412,-0.0
 0000104,-0.00000271,-0.00000220,-0.00000379,-0.00000275,0.00000888,-0.
 00001053,-0.00000952,0.00000275,0.00000631,-0.00000374,-0.00000424,0.0
 0000130,-0.00000119,-0.00000968,0.00000171,0.00001815,0.00000213,-0.00
 000428,-0.00000454,0.00000116,-0.00000361,-0.00000029,0.00000130,-0.00
 000193,0.00000057,0.00000825,0.00000587,0.00000157,0.00009411,0.000030
 09,0.00009534,0.00026763,0.00046317,-0.00082041,0.12666279,0.27888376,
 -0.00000717,-0.00000058,0.00000360,0.00002235,0.00000352,0.00000199,-0
 .00001064,-0.00000210,-0.00000577,-0.00001070,-0.00000178,-0.00000088,
 -0.00000032,-0.00000002,-0.00000220,0.00000331,-0.00000244,-0.00000527
 ,-0.00001370,-0.00000175,-0.00000031,0.00000148,0.00000304,0.00000635,
 -0.00000149,-0.00000078,0.00000201,0.00002314,-0.00001379,-0.00002346,
 -0.00003874,0.00000616,0.00001324,0.00003497,0.00001759,0.00001820,-0.
 00006234,-0.00000519,0.00001044,0.00003597,0.00001570,-0.00001036,0.00
 004324,-0.00001369,-0.00000473,-0.00006554,-0.00001786,0.00009330,-0.0
 0005066,0.00013625,-0.00006486,0.00006900,-0.00002995,0.00004463,-0.00
 002271,0.00000434,0.00002335,0.00057232,-0.00011447,-0.00075620,-0.000
 09158,-0.00002162,0.00000039,0.00001671,0.00001885,0.00005650,0.000021
 92,-0.00002537,0.00000558,0.00000189,0.00001063,-0.00001577,-0.0000064
 8,-0.00000331,0.00001686,0.00005769,-0.00001312,0.00002109,-0.00045773
 ,0.00036105,-0.00084891,-0.00557188,0.00090977,0.00278550,-0.00700728,
 -0.01472234,0.00190765,-0.02383928,-0.02303164,-0.04504537,0.00680729,
 0.01140208,0.00477596,-0.00356417,0.00345245,0.00348450,0.00000289,-0.
 00002534,-0.00003242,0.00000937,0.00001024,0.00001663,0.00000823,0.000
 00248,0.00000141,-0.00000762,-0.00000787,-0.00000977,0.00000405,0.0000
 0879,0.00000888,0.00000140,0.00000013,-0.00000055,0.,0.00000017,0.0000
 0041,0.00000160,0.00000131,-0.00000033,0.00000107,0.00000041,0.0000002
 5,-0.00000042,-0.00000017,-0.00000023,-0.00000118,-0.00000148,0.000000
 13,0.00000209,-0.00000154,-0.00000144,0.00000599,-0.00000007,0.0000008
 8,-0.00002236,0.00000275,-0.00001557,-0.00000371,0.00000289,-0.0000067
 1,-0.00000118,0.00000211,-0.00000645,-0.00002178,0.00001004,-0.0000054
 4,0.00000295,-0.00000631,-0.00000200,-0.00000143,-0.00000030,-0.000001
 74,0.00000141,-0.00000109,-0.00000169,-0.00000822,-0.00000162,-0.00000
 652,-0.00038477,-0.00071536,0.00000214,0.00212315,-0.00061299,-0.00217
 095,0.02913950,0.02333651,0.03777595,-0.00003564,-0.00000178,0.0000244
 3,0.00009638,0.00001309,-0.00000873,-0.00004130,-0.00000710,-0.0000129
 6,-0.00004557,-0.00000717,-0.00000518,-0.00000455,0.00000008,-0.000012
 37,0.00002132,-0.00001618,-0.00004360,-0.00010523,-0.00000861,0.000001
 22,0.00001710,0.00002476,0.00004322,-0.00001422,-0.00000688,0.00001722
 ,0.00015949,-0.00007049,-0.00012884,-0.00021754,0.00005656,0.00014458,
 0.00022069,0.00013049,0.00012824,-0.00031399,-0.00006489,-0.00003272,0
 .00020044,0.00003959,-0.00001331,-0.00001952,-0.00003072,-0.00004020,-
 0.00002931,0.00002573,0.00003664,0.00018233,-0.00012296,-0.00016140,-0
 .00005242,-0.00000320,0.00003900,-0.00001131,0.00000117,0.00003374,-0.
 00050407,-0.00010205,-0.00024892,-0.00017421,0.00021402,0.00007637,0.0
 0004906,0.00004202,-0.00000193,0.00001243,-0.00001362,0.00000399,0.000
 02006,0.00000276,-0.00001784,-0.00002568,0.00001764,0.00003421,0.00000
 178,-0.00008927,0.00000170,0.00269928,-0.00293042,-0.00229223,0.000084
 30,0.00011875,0.00066189,0.00264928,0.00153040,-0.00313432,-0.00493052
 ,-0.00254979,-0.00493171,-0.24238232,-0.01187388,-0.13526817,-0.007743
 33,0.00137619,-0.00784772,0.00006691,-0.00010704,-0.00014416,0.0000363
 5,0.00006033,0.00009136,-0.00000310,-0.00002357,-0.00003885,0.00000817
 ,0.00001924,0.00002975,-0.00003245,-0.00000608,-0.00002635,0.00000618,
 0.00000008,-0.00000420,-0.00000224,0.00000048,0.00000154,0.00000024,0.
 00000187,-0.00000145,0.00000325,0.00000287,0.00000166,-0.00000123,-0.0
 0000093,-0.00000085,-0.00000478,-0.00000358,0.00000195,0.00000447,-0.0
 0000010,-0.00000554,-0.00000739,-0.00000602,-0.00000480,0.00000092,-0.
 00001175,-0.00000856,0.00000358,0.00000774,-0.00001031,-0.00001036,0.0
 0000159,0.00000318,-0.00001980,-0.00000560,0.00000337,-0.00000083,-0.0
 0000180,-0.00000358,-0.00000080,-0.00000255,-0.00000241,-0.00000013,-0
 .00000408,-0.00000073,-0.00000619,0.00000259,-0.00000738,-0.00031033,0
 .00009780,0.00038537,-0.00036600,-0.00015282,-0.00024324,-0.00061767,0
 .00057796,0.00197115,0.25210080,-0.00001506,-0.00000093,0.00000990,0.0
 0004270,0.00000626,-0.00000223,-0.00001839,-0.00000335,-0.00000689,-0.
 00002115,-0.00000388,-0.00000235,-0.00000148,0.00000021,-0.00000527,0.
 00000894,-0.00000710,-0.00001961,-0.00004500,-0.00000291,0.00000059,0.
 00000672,0.00001065,0.00001939,-0.00000589,-0.00000310,0.00000774,0.00
 006660,-0.00003317,-0.00005733,-0.00009496,0.00002740,0.00006884,0.000
 09504,0.00005606,0.00005362,-0.00011494,-0.00002941,-0.00002084,0.0000
 6556,0.00000666,-0.00000778,0.00000389,-0.00000230,-0.00000647,-0.0000
 2499,0.00003428,-0.00000738,0.00011844,-0.00033269,-0.00029051,-0.0001
 3354,-0.00003286,0.00008667,-0.00000146,-0.00003295,-0.00000750,-0.001
 49910,-0.00011681,-0.00055887,-0.00020451,0.00027084,0.00010720,0.0000
 5084,0.00000171,-0.00000049,0.00001767,0.00000291,0.00000693,0.0000291
 1,-0.00002525,-0.00000283,-0.00000463,0.00000171,0.00001759,0.00000864
 ,-0.00006403,-0.00000282,-0.00227859,-0.00359218,0.00105243,-0.0000793
 0,-0.00123802,0.00005569,0.00094692,-0.00379124,0.00312735,0.02151466,
 0.00537723,0.01376361,-0.01145705,-0.05512205,-0.00299415,-0.02252715,
 0.00229924,-0.01523105,0.00003290,-0.00003574,-0.00005175,-0.00000057,
 0.00002202,0.00003569,-0.00000037,-0.00001479,-0.00002345,0.00001635,0
 .00001121,0.00001327,-0.00002362,-0.00000411,-0.00001163,0.00000253,0.
 00000019,-0.00000161,-0.00000100,0.00000027,0.00000069,-0.00000060,0.0
 0000049,-0.00000044,0.00000147,0.00000128,0.00000050,-0.00000079,-0.00
 000041,-0.00000039,-0.00000272,-0.00000161,0.00000075,0.00000273,0.000
 00059,-0.00000174,-0.00000336,-0.00000326,0.00000186,0.00000124,-0.000
 00541,0.00000718,0.00000499,0.00000270,-0.00000734,-0.00001623,0.00000
 518,-0.00000528,-0.00002497,0.00000351,0.00000200,-0.00000026,-0.00000
 852,-0.00001456,-0.00000359,-0.00000507,-0.00000598,-0.00000127,-0.000
 00700,-0.00000274,-0.00000811,0.00000271,-0.00000899,0.00008965,0.0000
 8451,-0.00015963,0.00110343,0.00012879,0.00071554,0.00015143,0.0006799
 6,-0.00090577,0.01343288,0.05474574,-0.00000837,-0.00000069,0.00000474
 ,0.00002368,0.00000351,0.00000046,-0.00001137,-0.00000230,-0.00000497,
 -0.00000920,-0.00000107,-0.00000099,-0.00000207,-0.00000124,-0.0000033
 1,0.00000704,-0.00000273,-0.00000719,-0.00002374,-0.00000287,-0.000000
 80,0.00000512,0.00000444,0.00000853,-0.00000366,-0.00000065,0.00000279
 ,0.00003309,-0.00001653,-0.00003060,-0.00005294,0.00000356,0.00001696,
 0.00004545,0.00003287,0.00002681,-0.00008315,-0.00000361,0.00000890,0.
 00004876,-0.00001518,-0.00000702,0.00000050,0.00000776,0.00000021,0.00
 001761,0.00001691,-0.00004186,0.00012471,-0.00010046,-0.00005338,-0.00
 007308,-0.00003472,0.00002069,0.00001760,-0.00002059,-0.00000920,-0.00
 047218,0.00001232,-0.00007163,-0.00007909,0.00004330,0.00001213,0.0000
 3788,-0.00009465,-0.00001451,-0.00002243,0.00006157,0.00000862,0.00000
 337,-0.00005877,0.00003466,0.00003657,-0.00001467,-0.00003243,-0.00000
 391,0.00003854,-0.00004056,-0.00231520,0.00085234,0.00552347,0.0007726
 8,0.00001468,-0.00031514,-0.00308322,0.00338102,0.00370587,-0.01029906
 ,-0.00270469,-0.00284396,-0.13546454,-0.00279583,-0.12546219,-0.001957
 30,0.00117265,0.00166424,-0.00001763,-0.00003782,-0.00004699,0.0000255
 6,0.00002058,0.00002743,0.00000851,0.00000070,-0.00000241,-0.00002046,
 -0.00000819,-0.00000399,0.00002451,0.00001278,0.00000995,0.00000170,0.
 00000019,-0.00000088,0.00000006,0.00000029,0.00000044,0.00000234,0.000
 00195,-0.00000041,0.00000102,0.00000047,0.00000033,-0.00000019,-0.0000
 0013,-0.00000028,-0.00000091,-0.00000197,0.00000078,0.00000304,-0.0000
 0045,0.00000012,-0.00000015,0.00000123,-0.00000050,0.00001967,0.000012
 37,-0.00000887,0.00000003,0.00000075,-0.00000439,-0.00000563,0.0000030
 8,-0.00000446,-0.00002807,0.00001501,-0.00000116,0.00000143,-0.0000142
 8,-0.00002010,-0.00000114,-0.00000435,-0.00000112,0.00000282,-0.000002
 52,-0.00000026,0.00000468,0.00000856,-0.00000163,0.00035582,-0.0001698
 9,-0.00064061,-0.00052533,-0.00011621,-0.00025543,0.00201634,-0.000651
 49,-0.00219318,0.14882456,0.00194447,0.12350675,0.00001111,0.00000021,
 -0.00000651,-0.00003127,-0.00000442,-0.00000004,0.00001477,0.00000240,
 0.00000635,0.00001291,0.00000201,0.00000096,0.00000225,0.00000196,0.00
 000467,-0.00000831,0.00000277,0.00000938,0.00002859,0.00000309,0.00000
 137,-0.00000549,-0.00000672,-0.00001144,0.00000440,0.00000078,-0.00000
 360,-0.00004238,0.00002595,0.00004213,0.00006842,-0.00000728,-0.000024
 97,-0.00005817,-0.00003952,-0.00002857,0.00009218,-0.00000008,-0.00000
 967,-0.00002926,0.00001338,-0.00000512,-0.00003988,-0.00001458,0.00002
 068,0.00009430,-0.00018182,-0.00001802,-0.00064958,-0.00023226,0.00009
 473,0.00010108,0.00015517,0.00000608,-0.00002619,0.00001318,-0.0000324
 0,0.00070651,0.00151544,0.00255855,0.00014717,-0.00035487,-0.00018779,
 0.00026564,-0.00008867,-0.00041878,-0.00012736,0.00015433,0.00002896,-
 0.00007871,-0.00003687,0.00005776,0.00006130,-0.00009966,-0.00003341,0
 .00002591,-0.00023589,0.00010895,-0.00420932,0.02192221,-0.01062004,-0
 .00235883,-0.00193518,-0.00468735,-0.00085171,-0.00061643,0.00019404,0
 .00097940,-0.00360588,-0.00319410,0.00889795,-0.01293747,0.00703139,-0
 .08463675,0.07862383,-0.05320048,0.00002449,0.00005022,0.00005710,-0.0
 0003303,-0.00003270,-0.00003105,-0.00001158,-0.00000155,-0.00000079,0.
 00003005,0.00000942,0.00000931,-0.00003077,-0.00001733,-0.00001637,-0.
 00000218,0.00000025,0.00000118,-0.00000002,-0.00000007,-0.00000063,-0.
 00000303,-0.00000177,0.00000064,-0.00000129,-0.00000015,-0.00000039,0.
 00000036,0.00000053,0.00000035,0.00000128,0.00000299,-0.00000108,-0.00
 000397,0.00000171,-0.00000033,-0.00000313,0.00000891,-0.00000858,0.000
 03313,0.00006866,-0.00004013,-0.00000780,-0.00002165,-0.00000740,0.000
 00251,-0.00000045,0.00000803,0.00001336,-0.00003888,0.00006740,-0.0000
 1817,0.00002235,0.00002929,-0.00000292,0.00001298,0.00002008,0.0000029
 5,0.00001306,0.00000585,-0.00009128,-0.00005810,-0.00000777,-0.0002613
 5,0.00107895,-0.00065149,-0.00019409,0.00017458,0.00042595,0.00034453,
 -0.00068409,0.00028892,-0.00061083,0.00079932,0.00209781,0.08246212,0.
 00001501,0.00000078,-0.00001049,-0.00003986,-0.00000530,0.00000438,0.0
 0001703,0.00000293,0.00000480,0.00001865,0.00000317,0.00000207,0.00000
 213,-0.00000088,0.00000537,-0.00000877,0.00000778,0.00001811,0.0000450
 1,0.00000407,-0.00000050,-0.00000738,-0.00001065,-0.00001835,0.0000061
 7,0.00000268,-0.00000717,-0.00006891,0.00002636,0.00005403,0.00008984,
 -0.00002227,-0.00006136,-0.00009170,-0.00005571,-0.00005238,0.00013461
 ,0.00002803,0.00000680,-0.00008047,-0.00001845,0.00001970,0.00001067,-
 0.00000542,-0.00000240,0.00001759,0.00006000,-0.00000388,0.00002749,0.
 00015123,0.00016500,0.00000737,0.00001685,-0.00003411,-0.00000094,-0.0
 0000832,0.00000130,0.00047349,0.00000493,-0.00099205,-0.00067634,-0.00
 004227,-0.00052418,-0.00011364,-0.00041810,-0.00051577,-0.00011849,0.0
 0022786,-0.00006823,-0.00003020,-0.00012256,0.00010215,0.00011680,-0.0
 0015540,-0.00005570,-0.00004958,0.00005054,0.00002644,-0.00223559,0.00
 318165,-0.00156825,-0.00100060,0.00130108,0.00021893,-0.00050256,0.000
 08766,-0.00058800,-0.00397333,-0.00256918,-0.00041118,0.01087095,-0.01
 569077,0.01181868,0.07960448,-0.24175751,0.10508888,-0.00002426,0.0000
 4936,0.00006630,-0.00002571,-0.00002649,-0.00003925,0.00000553,0.00000
 638,0.00001143,-0.00000064,-0.00000779,-0.00001596,0.00001064,0.000004
 50,0.00001315,-0.00000260,-0.00000008,0.00000185,0.00000100,-0.0000002
 4,-0.00000062,-0.00000017,-0.00000086,0.00000070,-0.00000127,-0.000001
 14,-0.00000077,0.00000044,0.00000039,0.00000035,0.00000153,0.00000120,
 -0.00000069,-0.00000134,0.00000045,0.00000177,0.00000868,0.00000137,0.
 00000205,0.00000277,-0.00003035,0.00000213,-0.00000183,0.00000253,0.00
 000243,0.00000439,-0.00000324,-0.00000097,0.00006793,0.00002024,0.0001
 3701,0.00000602,0.00000724,0.00001725,0.00000341,0.00000330,0.00001240
 ,-0.00000051,-0.00000279,-0.00000562,0.00001121,0.00002604,0.00001439,
 -0.00022410,0.00015541,-0.00004273,0.00015728,-0.00004438,-0.00007697,
 0.00054275,-0.00085254,0.00058249,0.00042624,0.00073582,-0.00078935,-0
 .08342630,0.25568086,0.00002005,0.00000047,-0.00001421,-0.00005362,-0.
 00000688,0.00000634,0.00002224,0.00000303,0.00000621,0.00002659,0.0000
 0553,0.00000275,0.00000187,-0.00000297,0.00000659,-0.00000954,0.000011
 42,0.00002449,0.00005511,0.00000253,-0.00000147,-0.00000778,-0.0000133
 3,-0.00002410,0.00000691,0.00000341,-0.00000967,-0.00008517,0.00003410
 ,0.00006643,0.00010754,-0.00003520,-0.00008803,-0.00011434,-0.00007201
 ,-0.00006251,0.00014103,0.00002815,0.00002471,-0.00007333,0.00002124,0
 .00000873,0.00001274,-0.00003908,-0.00001671,0.00005025,0.00008261,0.0
 0005162,-0.00004040,0.00022871,0.00012169,0.00010328,-0.00000619,0.000
 05640,-0.00001419,-0.00003711,-0.00001186,0.00208075,-0.00041135,-0.00
 226371,-0.00094093,-0.00003440,-0.00014787,0.00017902,0.00003587,-0.00
 011201,0.00025159,-0.00022280,0.00002694,0.00001727,0.00002630,-0.0001
 0696,-0.00008270,0.00004083,0.00006025,0.00016426,-0.00036005,0.000176
 51,-0.00468396,0.01371518,-0.00312144,-0.00480645,-0.00026827,0.002564
 99,0.00024379,-0.00059495,-0.00068160,-0.00308419,-0.00000469,0.005016
 87,0.00095762,-0.00386999,0.00477124,-0.05259539,0.10434410,-0.0948503
 3,-0.00004116,0.00005035,0.00007182,-0.00002221,-0.00003292,-0.0000422
 6,0.00001237,0.00001094,0.00001792,-0.00001529,-0.00001678,-0.00002962
 ,0.00003111,0.00001328,0.00002888,-0.00000336,0.00000040,0.00000237,0.
 00000159,0.00000010,-0.00000088,0.00000113,-0.00000020,0.00000087,-0.0
 0000166,-0.00000072,-0.00000098,0.00000069,0.00000090,0.00000044,0.000
 00164,0.00000205,-0.00000135,-0.00000149,0.00000099,0.00000084,0.00001
 713,0.00000029,0.00000088,-0.00000820,-0.00002955,-0.00005627,-0.00001
 530,-0.00001269,-0.00002703,0.00000023,-0.00000020,-0.00001000,-0.0001
 1764,0.00013370,-0.00014994,-0.00000036,-0.00000322,-0.00000680,-0.000
 00614,0.00001548,-0.00000876,0.00000746,0.00001231,-0.00000996,0.00002
 080,0.00003133,-0.00002722,-0.00036220,0.00072389,-0.00001687,0.000436
 81,-0.00011069,-0.00062232,-0.00000042,-0.00020402,0.00016127,0.002144
 21,-0.00067381,-0.00245846,0.06007036,-0.11251541,0.09170317\\0.000000
 69,-0.00000096,-0.00000067,-0.00000277,0.00000105,-0.00000182,0.000001
 42,-0.00000176,0.00000216,0.00000205,-0.00000065,0.00000109,-0.0000020
 6,-0.00000014,0.00000045,0.00000483,0.00000032,-0.00000114,-0.00000517
 ,0.00000050,-0.00000346,0.00000586,0.00000013,0.00000229,-0.00000190,-
 0.00000120,0.00000071,0.00000100,-0.00000308,-0.00000024,-0.00000206,0
 .00000116,0.00000145,0.00000109,-0.00000021,0.00000183,-0.00000295,-0.
 00000136,-0.00000254,0.00001348,-0.00000128,-0.00000446,-0.00000976,-0
 .00000163,0.00000025,0.00000620,0.00000172,-0.00000135,-0.00000297,0.0
 0000050,0.00000011,0.00000609,0.,0.00000060,-0.00001144,0.00000129,0.0
 0000325,0.00000118,0.00000394,0.00000053,0.00000104,-0.00000132,-0.000
 00017,-0.00000155,-0.00000017,0.00000103,0.00000080,-0.00000139,0.0000
 0115,0.00000007,-0.00000005,0.00000202,0.00000072,-0.00000081,0.000001
 62,0.00000095,0.00000199,0.00000201,-0.00000194,-0.00000371,-0.0000004
 2,0.00000095,0.00000037,-0.00000137,-0.00000013,0.00000036,-0.00000188
 ,0.00000002,0.00000074,-0.00000182,-0.00000003,0.00000166,-0.00000147,
 -0.00000043,0.00000067,-0.00000103,-0.00000844,-0.00000017,-0.00000324
 ,0.00000308,0.00000058,-0.00000120,0.00000188,0.00000701,0.00000598,-0
 .00000725,-0.00000280,-0.00000583,0.00000558,0.00000194,0.00000431,-0.
 00000038,0.00000005,0.00000053,0.00000021,0.00000134,0.00000003,0.0000
 0059,0.00000150,0.00000071,0.00000044,-0.00000140,-0.00000085,0.000000
 44,-0.00000169,0.,-0.00000138,-0.00000227,-0.00000002,0.00000113,-0.00
 000086,0.00000036,0.00000163,0.00000047,-0.00000198,-0.00000156,0.0000
 0004,-0.00000021,-0.00000088,-0.00000062,0.00000122,0.00000168,-0.0000
 0113,0.00000129,0.00000009,-0.00000074,0.00000023,0.00000008,-0.000001
 02,0.00000148,0.00000035,-0.00000040,0.00000273,0.00000040,0.00000064,
 0.00000257,-0.00000011,0.00000063,0.00000116,-0.00000003,-0.00000025,-
 0.00000132,-0.00000027,-0.00000047,-0.00000266,-0.00000031,0.00000059,
 -0.00000255,-0.00000031,0.00000119,-0.00000136,0.00000006,0.00000116,-
 0.00000010\\\@


 IT IS WELL TO REMEMBER THAT MAN IS A PART OF NATURE AND THAT HIS WORKS,
 WHATEVER THEY MAY BE, ARE NO MORE "UNNATURAL" THAN 
 THE FLIGHT OF AN EAGLE OR THE PASSAGE OF A TORNADO.

                                    -- CHARLES MCCARRY IN "THE GREAT SOUTHWEST"
 Job cpu time:      10 days  3 hours 48 minutes 36.8 seconds.
 Elapsed time:       0 days 16 hours 20 minutes 37.4 seconds.
 File lengths (MBytes):  RWF=  16397 Int=      0 D2E=      0 Chk=    130 Scr=      1
 Normal termination of Gaussian 16 at Sat May 16 08:02:25 2026.
