 Entering Gaussian System, Link 0=g16
 Input=TPABTDPhCN.com
 Output=TPABTDPhCN.log
 Initial command:
 /home/programs/g16/l1.exe "/tmp/Gau-705857.inp" -scrdir="/tmp/"
 Entering Link 1 = /home/programs/g16/l1.exe PID=    705859.
  
 Copyright (c) 1988-2017, Gaussian, Inc.  All Rights Reserved.
  
 This is part of the Gaussian(R) 16 program.  It is based on
 the Gaussian(R) 09 system (copyright 2009, Gaussian, Inc.),
 the Gaussian(R) 03 system (copyright 2003, Gaussian, Inc.),
 the Gaussian(R) 98 system (copyright 1998, Gaussian, Inc.),
 the Gaussian(R) 94 system (copyright 1995, Gaussian, Inc.),
 the Gaussian 92(TM) system (copyright 1992, Gaussian, Inc.),
 the Gaussian 90(TM) system (copyright 1990, Gaussian, Inc.),
 the Gaussian 88(TM) system (copyright 1988, Gaussian, Inc.),
 the Gaussian 86(TM) system (copyright 1986, Carnegie Mellon
 University), and the Gaussian 82(TM) system (copyright 1983,
 Carnegie Mellon University). Gaussian is a federally registered
 trademark of Gaussian, Inc.
  
 This software contains proprietary and confidential information,
 including trade secrets, belonging to Gaussian, Inc.
  
 This software is provided under written license and may be
 used, copied, transmitted, or stored only in accord with that
 written license.
  
 The following legend is applicable only to US Government
 contracts under FAR:
  
                    RESTRICTED RIGHTS LEGEND
  
 Use, reproduction and disclosure by the US Government is
 subject to restrictions as set forth in subparagraphs (a)
 and (c) of the Commercial Computer Software - Restricted
 Rights clause in FAR 52.227-19.
  
 Gaussian, Inc.
 340 Quinnipiac St., Bldg. 40, Wallingford CT 06492
  
  
 ---------------------------------------------------------------
 Warning -- This program may not be used in any manner that
 competes with the business of Gaussian, Inc. or will provide
 assistance to any competitor of Gaussian, Inc.  The licensee
 of this program is prohibited from giving any competitor of
 Gaussian, Inc. access to this program.  By using this program,
 the user acknowledges that Gaussian, Inc. is engaged in the
 business of creating and licensing software in the field of
 computational chemistry and represents and warrants to the
 licensee that it is not a competitor of Gaussian, Inc. and that
 it will not use this program in any manner prohibited above.
 ---------------------------------------------------------------
  

 Cite this work as:
 Gaussian 16, Revision B.01,
 M. J. Frisch, G. W. Trucks, H. B. Schlegel, G. E. Scuseria, 
 M. A. Robb, J. R. Cheeseman, G. Scalmani, V. Barone, 
 G. A. Petersson, H. Nakatsuji, X. Li, M. Caricato, A. V. Marenich, 
 J. Bloino, B. G. Janesko, R. Gomperts, B. Mennucci, H. P. Hratchian, 
 J. V. Ortiz, A. F. Izmaylov, J. L. Sonnenberg, D. Williams-Young, 
 F. Ding, F. Lipparini, F. Egidi, J. Goings, B. Peng, A. Petrone, 
 T. Henderson, D. Ranasinghe, V. G. Zakrzewski, J. Gao, N. Rega, 
 G. Zheng, W. Liang, M. Hada, M. Ehara, K. Toyota, R. Fukuda, 
 J. Hasegawa, M. Ishida, T. Nakajima, Y. Honda, O. Kitao, H. Nakai, 
 T. Vreven, K. Throssell, J. A. Montgomery, Jr., J. E. Peralta, 
 F. Ogliaro, M. J. Bearpark, J. J. Heyd, E. N. Brothers, K. N. Kudin, 
 V. N. Staroverov, T. A. Keith, R. Kobayashi, J. Normand, 
 K. Raghavachari, A. P. Rendell, J. C. Burant, S. S. Iyengar, 
 J. Tomasi, M. Cossi, J. M. Millam, M. Klene, C. Adamo, R. Cammi, 
 J. W. Ochterski, R. L. Martin, K. Morokuma, O. Farkas, 
 J. B. Foresman, and D. J. Fox, Gaussian, Inc., Wallingford CT, 2016.
 
 ******************************************
 Gaussian 16:  EM64L-G16RevB.01 20-Dec-2017
                 5-May-2026 
 ******************************************
 %chk=mol_opt_s0.chk
 %nproc=15
 Will use up to   15 processors via shared memory.
 %mem=50GB
 ----------------------------------------------------------------------
 # lc-whpbe/6-31+G(d,p) iop(3/108=0174900000) iop(3/107=0174900000) opt
 ----------------------------------------------------------------------
 1/18=20,19=15,26=3,38=1/1,3;
 2/9=110,12=2,17=6,18=5,40=1/2;
 3/5=1,6=6,7=111,11=2,25=1,30=1,71=1,74=-71,107=174900000,108=174900000/1,2,3;
 4//1;
 5/5=2,38=5/2;
 6/7=2,8=2,9=2,10=2,28=1/1;
 7//1,2,3,16;
 1/18=20,19=15,26=3/3(2);
 2/9=110/2;
 99//99;
 2/9=110/2;
 3/5=1,6=6,7=111,11=2,25=1,30=1,71=1,74=-71,107=174900000,108=174900000/1,2,3;
 4/5=5,16=3,69=1/1;
 5/5=2,38=5/2;
 7//1,2,3,16;
 1/18=20,19=15,26=3/3(-5);
 2/9=110/2;
 6/7=2,8=2,9=2,10=2,19=2,28=1/1;
 99/9=1/99;
 ----
 OPT0
 ----
 Symbolic Z-matrix:
 Charge =  0 Multiplicity = 1
 C                    -4.64477   0.92925   0.35849 
 N                    -3.87301  -0.21875   0.06076 
 C                    -4.52175  -1.4449   -0.21693 
 C                    -5.68021  -1.46353  -0.99078 
 C                    -6.33459  -2.65881  -1.2394 
 C                    -5.83391  -3.85276  -0.73982 
 C                    -4.67138  -3.83784   0.01767 
 C                    -4.02125  -2.64331   0.28751 
 C                    -2.46467  -0.13878   0.03759 
 C                    -1.78331   0.5986    1.00236 
 C                    -0.40125   0.67684   0.97299 
 C                     0.33394   0.02098  -0.01101 
 C                     1.81179   0.08582  -0.0046 
 C                     2.55359   0.46674  -1.16683 
 N                     2.04121   0.78876  -2.36142 
 S                     3.27641   1.15707  -3.30629 
 N                     4.50562   0.94414  -2.30522 
 C                     3.98122   0.55963  -1.13506 
 C                     4.71021   0.24002   0.05081 
 C                     6.18747   0.29531   0.09023 
 C                     6.91103  -0.79465   0.56784 
 C                     8.29226  -0.75151   0.63223 
 C                     8.9633    0.39625   0.22122 
 C                     10.39826   0.45022   0.2922 
 N                     11.54487   0.49363   0.35229 
 C                     8.24915   1.49222  -0.25886 
 C                     6.87065   1.43506  -0.33013 
 C                     3.96993  -0.12954   1.13414 
 C                     2.54736  -0.1953    1.10969 
 C                    -0.35448  -0.70852  -0.97865 
 C                    -1.73445  -0.79154  -0.95497 
 C                    -5.77001   0.82411   1.17296 
 C                    -6.54364   1.9412    1.44225 
 C                    -6.19555   3.18019   0.92262 
 C                    -5.06584   3.28939   0.12432 
 C                    -4.29759   2.17246  -0.16624 
 H                    -6.0677   -0.53409  -1.38716 
 H                    -7.23609  -2.65578  -1.83858 
 H                    -6.34417  -4.78541  -0.94003 
 H                    -4.2735   -4.76201   0.41683 
 H                    -3.12281  -2.63425   0.89124 
 H                    -2.34243   1.11622   1.77117 
 H                     0.11556   1.26323   1.72331 
 H                     6.38401  -1.69015   0.8711 
 H                     8.85322  -1.60295   0.99185 
 H                     8.77793   2.38235  -0.57077 
 H                     6.31365   2.28253  -0.70481 
 H                     4.47974  -0.37239   2.05877 
 H                     2.03376  -0.49667   2.01436 
 H                     0.19585  -1.21465  -1.76116 
 H                    -2.25783  -1.36618  -1.70845 
 H                    -6.03808  -0.14036   1.58461 
 H                    -7.41784   1.84246   2.07297 
 H                    -6.79849   4.05194   1.13881 
 H                    -4.78625   4.24939  -0.29051 
 H                    -3.42511   2.25864  -0.80102 
 

 GradGradGradGradGradGradGradGradGradGradGradGradGradGradGradGradGradGrad
 Berny optimization.
 Initialization pass.
                           ----------------------------
                           !    Initial Parameters    !
                           ! (Angstroms and Degrees)  !
 --------------------------                            --------------------------
 ! Name  Definition              Value          Derivative Info.                !
 --------------------------------------------------------------------------------
 ! R1    R(1,2)                  1.415          estimate D2E/DX2                !
 ! R2    R(1,32)                 1.393          estimate D2E/DX2                !
 ! R3    R(1,36)                 1.3934         estimate D2E/DX2                !
 ! R4    R(2,3)                  1.4147         estimate D2E/DX2                !
 ! R5    R(2,9)                  1.4108         estimate D2E/DX2                !
 ! R6    R(3,4)                  1.3933         estimate D2E/DX2                !
 ! R7    R(3,8)                  1.3932         estimate D2E/DX2                !
 ! R8    R(4,5)                  1.3852         estimate D2E/DX2                !
 ! R9    R(4,37)                 1.0822         estimate D2E/DX2                !
 ! R10   R(5,6)                  1.3877         estimate D2E/DX2                !
 ! R11   R(5,38)                 1.0825         estimate D2E/DX2                !
 ! R12   R(6,7)                  1.3876         estimate D2E/DX2                !
 ! R13   R(6,39)                 1.0818         estimate D2E/DX2                !
 ! R14   R(7,8)                  1.3865         estimate D2E/DX2                !
 ! R15   R(7,40)                 1.0825         estimate D2E/DX2                !
 ! R16   R(8,41)                 1.0825         estimate D2E/DX2                !
 ! R17   R(9,10)                 1.3924         estimate D2E/DX2                !
 ! R18   R(9,31)                 1.3945         estimate D2E/DX2                !
 ! R19   R(10,11)                1.3846         estimate D2E/DX2                !
 ! R20   R(10,42)                1.0824         estimate D2E/DX2                !
 ! R21   R(11,12)                1.3925         estimate D2E/DX2                !
 ! R22   R(11,43)                1.0835         estimate D2E/DX2                !
 ! R23   R(12,13)                1.4793         estimate D2E/DX2                !
 ! R24   R(12,30)                1.3937         estimate D2E/DX2                !
 ! R25   R(13,14)                1.4304         estimate D2E/DX2                !
 ! R26   R(13,29)                1.3645         estimate D2E/DX2                !
 ! R27   R(14,15)                1.3391         estimate D2E/DX2                !
 ! R28   R(14,18)                1.431          estimate D2E/DX2                !
 ! R29   R(15,16)                1.5982         estimate D2E/DX2                !
 ! R30   R(16,17)                1.5995         estimate D2E/DX2                !
 ! R31   R(17,18)                1.3387         estimate D2E/DX2                !
 ! R32   R(18,19)                1.4282         estimate D2E/DX2                !
 ! R33   R(19,20)                1.4788         estimate D2E/DX2                !
 ! R34   R(19,28)                1.3632         estimate D2E/DX2                !
 ! R35   R(20,21)                1.3927         estimate D2E/DX2                !
 ! R36   R(20,27)                1.3937         estimate D2E/DX2                !
 ! R37   R(21,22)                1.3834         estimate D2E/DX2                !
 ! R38   R(21,44)                1.0824         estimate D2E/DX2                !
 ! R39   R(22,23)                1.3916         estimate D2E/DX2                !
 ! R40   R(22,45)                1.0812         estimate D2E/DX2                !
 ! R41   R(23,24)                1.4377         estimate D2E/DX2                !
 ! R42   R(23,26)                1.3934         estimate D2E/DX2                !
 ! R43   R(24,25)                1.149          estimate D2E/DX2                !
 ! R44   R(26,27)                1.3815         estimate D2E/DX2                !
 ! R45   R(26,46)                1.0813         estimate D2E/DX2                !
 ! R46   R(27,47)                1.0811         estimate D2E/DX2                !
 ! R47   R(28,29)                1.4243         estimate D2E/DX2                !
 ! R48   R(28,48)                1.0834         estimate D2E/DX2                !
 ! R49   R(29,49)                1.0831         estimate D2E/DX2                !
 ! R50   R(30,31)                1.3827         estimate D2E/DX2                !
 ! R51   R(30,50)                1.0823         estimate D2E/DX2                !
 ! R52   R(31,51)                1.0825         estimate D2E/DX2                !
 ! R53   R(32,33)                1.3852         estimate D2E/DX2                !
 ! R54   R(32,52)                1.0824         estimate D2E/DX2                !
 ! R55   R(33,34)                1.3879         estimate D2E/DX2                !
 ! R56   R(33,53)                1.0825         estimate D2E/DX2                !
 ! R57   R(34,35)                1.3876         estimate D2E/DX2                !
 ! R58   R(34,54)                1.0818         estimate D2E/DX2                !
 ! R59   R(35,36)                1.3864         estimate D2E/DX2                !
 ! R60   R(35,55)                1.0825         estimate D2E/DX2                !
 ! R61   R(36,56)                1.0824         estimate D2E/DX2                !
 ! A1    A(2,1,32)             120.156          estimate D2E/DX2                !
 ! A2    A(2,1,36)             120.5805         estimate D2E/DX2                !
 ! A3    A(32,1,36)            119.2612         estimate D2E/DX2                !
 ! A4    A(1,2,3)              119.6282         estimate D2E/DX2                !
 ! A5    A(1,2,9)              120.1283         estimate D2E/DX2                !
 ! A6    A(3,2,9)              120.2433         estimate D2E/DX2                !
 ! A7    A(2,3,4)              120.125          estimate D2E/DX2                !
 ! A8    A(2,3,8)              120.6443         estimate D2E/DX2                !
 ! A9    A(4,3,8)              119.2279         estimate D2E/DX2                !
 ! A10   A(3,4,5)              120.2667         estimate D2E/DX2                !
 ! A11   A(3,4,37)             119.3187         estimate D2E/DX2                !
 ! A12   A(5,4,37)             120.4122         estimate D2E/DX2                !
 ! A13   A(4,5,6)              120.4877         estimate D2E/DX2                !
 ! A14   A(4,5,38)             119.3654         estimate D2E/DX2                !
 ! A15   A(6,5,38)             120.1427         estimate D2E/DX2                !
 ! A16   A(5,6,7)              119.3103         estimate D2E/DX2                !
 ! A17   A(5,6,39)             120.3274         estimate D2E/DX2                !
 ! A18   A(7,6,39)             120.3623         estimate D2E/DX2                !
 ! A19   A(6,7,8)              120.5532         estimate D2E/DX2                !
 ! A20   A(6,7,40)             120.0042         estimate D2E/DX2                !
 ! A21   A(8,7,40)             119.4352         estimate D2E/DX2                !
 ! A22   A(3,8,7)              120.1426         estimate D2E/DX2                !
 ! A23   A(3,8,41)             119.5309         estimate D2E/DX2                !
 ! A24   A(7,8,41)             120.3265         estimate D2E/DX2                !
 ! A25   A(2,9,10)             120.4728         estimate D2E/DX2                !
 ! A26   A(2,9,31)             120.5245         estimate D2E/DX2                !
 ! A27   A(10,9,31)            119.002          estimate D2E/DX2                !
 ! A28   A(9,10,11)            120.244          estimate D2E/DX2                !
 ! A29   A(9,10,42)            119.5131         estimate D2E/DX2                !
 ! A30   A(11,10,42)           120.2413         estimate D2E/DX2                !
 ! A31   A(10,11,12)           121.0237         estimate D2E/DX2                !
 ! A32   A(10,11,43)           119.4734         estimate D2E/DX2                !
 ! A33   A(12,11,43)           119.5014         estimate D2E/DX2                !
 ! A34   A(11,12,13)           120.2495         estimate D2E/DX2                !
 ! A35   A(11,12,30)           118.4489         estimate D2E/DX2                !
 ! A36   A(13,12,30)           121.2933         estimate D2E/DX2                !
 ! A37   A(12,13,14)           121.7511         estimate D2E/DX2                !
 ! A38   A(12,13,29)           122.2139         estimate D2E/DX2                !
 ! A39   A(14,13,29)           116.0295         estimate D2E/DX2                !
 ! A40   A(13,14,15)           126.1869         estimate D2E/DX2                !
 ! A41   A(13,14,18)           121.105          estimate D2E/DX2                !
 ! A42   A(15,14,18)           112.7003         estimate D2E/DX2                !
 ! A43   A(14,15,16)           106.6846         estimate D2E/DX2                !
 ! A44   A(15,16,17)           101.1431         estimate D2E/DX2                !
 ! A45   A(16,17,18)           106.5144         estimate D2E/DX2                !
 ! A46   A(14,18,17)           112.9573         estimate D2E/DX2                !
 ! A47   A(14,18,19)           120.8717         estimate D2E/DX2                !
 ! A48   A(17,18,19)           126.164          estimate D2E/DX2                !
 ! A49   A(18,19,20)           121.5764         estimate D2E/DX2                !
 ! A50   A(18,19,28)           116.3172         estimate D2E/DX2                !
 ! A51   A(20,19,28)           122.1035         estimate D2E/DX2                !
 ! A52   A(19,20,21)           119.9242         estimate D2E/DX2                !
 ! A53   A(19,20,27)           120.8108         estimate D2E/DX2                !
 ! A54   A(21,20,27)           119.2599         estimate D2E/DX2                !
 ! A55   A(20,21,22)           120.6815         estimate D2E/DX2                !
 ! A56   A(20,21,44)           119.3795         estimate D2E/DX2                !
 ! A57   A(22,21,44)           119.9265         estimate D2E/DX2                !
 ! A58   A(21,22,23)           119.5656         estimate D2E/DX2                !
 ! A59   A(21,22,45)           120.5937         estimate D2E/DX2                !
 ! A60   A(23,22,45)           119.8393         estimate D2E/DX2                !
 ! A61   A(22,23,24)           119.8451         estimate D2E/DX2                !
 ! A62   A(22,23,26)           120.2205         estimate D2E/DX2                !
 ! A63   A(24,23,26)           119.9343         estimate D2E/DX2                !
 ! A64   A(23,26,27)           119.7769         estimate D2E/DX2                !
 ! A65   A(23,26,46)           119.7505         estimate D2E/DX2                !
 ! A66   A(27,26,46)           120.4725         estimate D2E/DX2                !
 ! A67   A(20,27,26)           120.4898         estimate D2E/DX2                !
 ! A68   A(20,27,47)           119.5391         estimate D2E/DX2                !
 ! A69   A(26,27,47)           119.9682         estimate D2E/DX2                !
 ! A70   A(19,28,29)           122.771          estimate D2E/DX2                !
 ! A71   A(19,28,48)           118.9121         estimate D2E/DX2                !
 ! A72   A(29,28,48)           118.3123         estimate D2E/DX2                !
 ! A73   A(13,29,28)           122.8844         estimate D2E/DX2                !
 ! A74   A(13,29,49)           118.9355         estimate D2E/DX2                !
 ! A75   A(28,29,49)           118.1735         estimate D2E/DX2                !
 ! A76   A(12,30,31)           120.8318         estimate D2E/DX2                !
 ! A77   A(12,30,50)           119.7087         estimate D2E/DX2                !
 ! A78   A(31,30,50)           119.4592         estimate D2E/DX2                !
 ! A79   A(9,31,30)            120.4462         estimate D2E/DX2                !
 ! A80   A(9,31,51)            119.3893         estimate D2E/DX2                !
 ! A81   A(30,31,51)           120.1645         estimate D2E/DX2                !
 ! A82   A(1,32,33)            120.2585         estimate D2E/DX2                !
 ! A83   A(1,32,52)            119.3194         estimate D2E/DX2                !
 ! A84   A(33,32,52)           120.4195         estimate D2E/DX2                !
 ! A85   A(32,33,34)           120.4675         estimate D2E/DX2                !
 ! A86   A(32,33,53)           119.3883         estimate D2E/DX2                !
 ! A87   A(34,33,53)           120.14           estimate D2E/DX2                !
 ! A88   A(33,34,35)           119.3297         estimate D2E/DX2                !
 ! A89   A(33,34,54)           120.3171         estimate D2E/DX2                !
 ! A90   A(35,34,54)           120.3532         estimate D2E/DX2                !
 ! A91   A(34,35,36)           120.5515         estimate D2E/DX2                !
 ! A92   A(34,35,55)           120.035          estimate D2E/DX2                !
 ! A93   A(36,35,55)           119.4063         estimate D2E/DX2                !
 ! A94   A(1,36,35)            120.1196         estimate D2E/DX2                !
 ! A95   A(1,36,56)            119.5208         estimate D2E/DX2                !
 ! A96   A(35,36,56)           120.3596         estimate D2E/DX2                !
 ! A97   L(23,24,25,45,-1)     179.9514         estimate D2E/DX2                !
 ! A98   L(23,24,25,45,-2)     180.2012         estimate D2E/DX2                !
 ! D1    D(32,1,2,3)            40.7473         estimate D2E/DX2                !
 ! D2    D(32,1,2,9)          -139.4302         estimate D2E/DX2                !
 ! D3    D(36,1,2,3)          -138.6924         estimate D2E/DX2                !
 ! D4    D(36,1,2,9)            41.1302         estimate D2E/DX2                !
 ! D5    D(2,1,32,33)         -178.5969         estimate D2E/DX2                !
 ! D6    D(2,1,32,52)            0.8197         estimate D2E/DX2                !
 ! D7    D(36,1,32,33)           0.8501         estimate D2E/DX2                !
 ! D8    D(36,1,32,52)        -179.7332         estimate D2E/DX2                !
 ! D9    D(2,1,36,35)          179.5583         estimate D2E/DX2                !
 ! D10   D(2,1,36,56)           -0.4472         estimate D2E/DX2                !
 ! D11   D(32,1,36,35)           0.1136         estimate D2E/DX2                !
 ! D12   D(32,1,36,56)        -179.8919         estimate D2E/DX2                !
 ! D13   D(1,2,3,4)             40.242          estimate D2E/DX2                !
 ! D14   D(1,2,3,8)           -139.1412         estimate D2E/DX2                !
 ! D15   D(9,2,3,4)           -139.5803         estimate D2E/DX2                !
 ! D16   D(9,2,3,8)             41.0364         estimate D2E/DX2                !
 ! D17   D(1,2,9,10)            40.9395         estimate D2E/DX2                !
 ! D18   D(1,2,9,31)          -138.7606         estimate D2E/DX2                !
 ! D19   D(3,2,9,10)          -139.239          estimate D2E/DX2                !
 ! D20   D(3,2,9,31)            41.0608         estimate D2E/DX2                !
 ! D21   D(2,3,4,5)           -178.5441         estimate D2E/DX2                !
 ! D22   D(2,3,4,37)             0.889          estimate D2E/DX2                !
 ! D23   D(8,3,4,5)              0.8479         estimate D2E/DX2                !
 ! D24   D(8,3,4,37)          -179.719          estimate D2E/DX2                !
 ! D25   D(2,3,8,7)            179.4879         estimate D2E/DX2                !
 ! D26   D(2,3,8,41)            -0.4702         estimate D2E/DX2                !
 ! D27   D(4,3,8,7)              0.0991         estimate D2E/DX2                !
 ! D28   D(4,3,8,41)          -179.8589         estimate D2E/DX2                !
 ! D29   D(3,4,5,6)             -1.0308         estimate D2E/DX2                !
 ! D30   D(3,4,5,38)           179.7094         estimate D2E/DX2                !
 ! D31   D(37,4,5,6)           179.5423         estimate D2E/DX2                !
 ! D32   D(37,4,5,38)            0.2825         estimate D2E/DX2                !
 ! D33   D(4,5,6,7)              0.2542         estimate D2E/DX2                !
 ! D34   D(4,5,6,39)          -179.6713         estimate D2E/DX2                !
 ! D35   D(38,5,6,7)           179.5083         estimate D2E/DX2                !
 ! D36   D(38,5,6,39)           -0.4173         estimate D2E/DX2                !
 ! D37   D(5,6,7,8)              0.6989         estimate D2E/DX2                !
 ! D38   D(5,6,7,40)           179.7099         estimate D2E/DX2                !
 ! D39   D(39,6,7,8)          -179.3756         estimate D2E/DX2                !
 ! D40   D(39,6,7,40)           -0.3646         estimate D2E/DX2                !
 ! D41   D(6,7,8,3)             -0.8763         estimate D2E/DX2                !
 ! D42   D(6,7,8,41)           179.0814         estimate D2E/DX2                !
 ! D43   D(40,7,8,3)          -179.8929         estimate D2E/DX2                !
 ! D44   D(40,7,8,41)            0.0648         estimate D2E/DX2                !
 ! D45   D(2,9,10,11)         -179.8248         estimate D2E/DX2                !
 ! D46   D(2,9,10,42)           -0.2753         estimate D2E/DX2                !
 ! D47   D(31,9,10,11)          -0.1201         estimate D2E/DX2                !
 ! D48   D(31,9,10,42)         179.4293         estimate D2E/DX2                !
 ! D49   D(2,9,31,30)          179.7904         estimate D2E/DX2                !
 ! D50   D(2,9,31,51)           -0.2655         estimate D2E/DX2                !
 ! D51   D(10,9,31,30)           0.086          estimate D2E/DX2                !
 ! D52   D(10,9,31,51)        -179.9699         estimate D2E/DX2                !
 ! D53   D(9,10,11,12)          -0.2503         estimate D2E/DX2                !
 ! D54   D(9,10,11,43)         179.3163         estimate D2E/DX2                !
 ! D55   D(42,10,11,12)       -179.7965         estimate D2E/DX2                !
 ! D56   D(42,10,11,43)         -0.2299         estimate D2E/DX2                !
 ! D57   D(10,11,12,13)       -178.3269         estimate D2E/DX2                !
 ! D58   D(10,11,12,30)          0.6416         estimate D2E/DX2                !
 ! D59   D(43,11,12,13)          2.1066         estimate D2E/DX2                !
 ! D60   D(43,11,12,30)       -178.9248         estimate D2E/DX2                !
 ! D61   D(11,12,13,14)       -128.5174         estimate D2E/DX2                !
 ! D62   D(11,12,13,29)         50.5921         estimate D2E/DX2                !
 ! D63   D(30,12,13,14)         52.5439         estimate D2E/DX2                !
 ! D64   D(30,12,13,29)       -128.3467         estimate D2E/DX2                !
 ! D65   D(11,12,30,31)         -0.675          estimate D2E/DX2                !
 ! D66   D(11,12,30,50)        179.1324         estimate D2E/DX2                !
 ! D67   D(13,12,30,31)        178.2823         estimate D2E/DX2                !
 ! D68   D(13,12,30,50)         -1.9103         estimate D2E/DX2                !
 ! D69   D(12,13,14,15)         -0.6054         estimate D2E/DX2                !
 ! D70   D(12,13,14,18)        178.3031         estimate D2E/DX2                !
 ! D71   D(29,13,14,15)       -179.767          estimate D2E/DX2                !
 ! D72   D(29,13,14,18)         -0.8584         estimate D2E/DX2                !
 ! D73   D(12,13,29,28)       -179.6087         estimate D2E/DX2                !
 ! D74   D(12,13,29,49)          1.3394         estimate D2E/DX2                !
 ! D75   D(14,13,29,28)         -0.4514         estimate D2E/DX2                !
 ! D76   D(14,13,29,49)       -179.5033         estimate D2E/DX2                !
 ! D77   D(13,14,15,16)        179.1333         estimate D2E/DX2                !
 ! D78   D(18,14,15,16)          0.1463         estimate D2E/DX2                !
 ! D79   D(13,14,18,17)       -179.2479         estimate D2E/DX2                !
 ! D80   D(13,14,18,19)          1.6587         estimate D2E/DX2                !
 ! D81   D(15,14,18,17)         -0.2028         estimate D2E/DX2                !
 ! D82   D(15,14,18,19)       -179.2962         estimate D2E/DX2                !
 ! D83   D(14,15,16,17)         -0.0531         estimate D2E/DX2                !
 ! D84   D(15,16,17,18)         -0.0599         estimate D2E/DX2                !
 ! D85   D(16,17,18,14)          0.1513         estimate D2E/DX2                !
 ! D86   D(16,17,18,19)        179.1875         estimate D2E/DX2                !
 ! D87   D(14,18,19,20)        178.3212         estimate D2E/DX2                !
 ! D88   D(14,18,19,28)         -1.0592         estimate D2E/DX2                !
 ! D89   D(17,18,19,20)         -0.6448         estimate D2E/DX2                !
 ! D90   D(17,18,19,28)        179.9748         estimate D2E/DX2                !
 ! D91   D(18,19,20,21)       -128.9161         estimate D2E/DX2                !
 ! D92   D(18,19,20,27)         51.9046         estimate D2E/DX2                !
 ! D93   D(28,19,20,21)         50.4282         estimate D2E/DX2                !
 ! D94   D(28,19,20,27)       -128.7511         estimate D2E/DX2                !
 ! D95   D(18,19,28,29)         -0.2433         estimate D2E/DX2                !
 ! D96   D(18,19,28,48)       -179.4462         estimate D2E/DX2                !
 ! D97   D(20,19,28,29)       -179.6201         estimate D2E/DX2                !
 ! D98   D(20,19,28,48)          1.1769         estimate D2E/DX2                !
 ! D99   D(19,20,21,22)       -178.9303         estimate D2E/DX2                !
 ! D100  D(19,20,21,44)          2.3591         estimate D2E/DX2                !
 ! D101  D(27,20,21,22)          0.2617         estimate D2E/DX2                !
 ! D102  D(27,20,21,44)       -178.4489         estimate D2E/DX2                !
 ! D103  D(19,20,27,26)        178.358          estimate D2E/DX2                !
 ! D104  D(19,20,27,47)         -1.0201         estimate D2E/DX2                !
 ! D105  D(21,20,27,26)         -0.8267         estimate D2E/DX2                !
 ! D106  D(21,20,27,47)        179.7952         estimate D2E/DX2                !
 ! D107  D(20,21,22,23)          0.3194         estimate D2E/DX2                !
 ! D108  D(20,21,22,45)       -179.2455         estimate D2E/DX2                !
 ! D109  D(44,21,22,23)        179.023          estimate D2E/DX2                !
 ! D110  D(44,21,22,45)         -0.5419         estimate D2E/DX2                !
 ! D111  D(21,22,23,24)        179.6721         estimate D2E/DX2                !
 ! D112  D(21,22,23,26)         -0.347          estimate D2E/DX2                !
 ! D113  D(45,22,23,24)         -0.7596         estimate D2E/DX2                !
 ! D114  D(45,22,23,26)        179.2213         estimate D2E/DX2                !
 ! D115  D(22,23,26,27)         -0.2112         estimate D2E/DX2                !
 ! D116  D(22,23,26,46)        179.6431         estimate D2E/DX2                !
 ! D117  D(24,23,26,27)        179.7697         estimate D2E/DX2                !
 ! D118  D(24,23,26,46)         -0.3761         estimate D2E/DX2                !
 ! D119  D(23,26,27,20)          0.8021         estimate D2E/DX2                !
 ! D120  D(23,26,27,47)       -179.8224         estimate D2E/DX2                !
 ! D121  D(46,26,27,20)       -179.0511         estimate D2E/DX2                !
 ! D122  D(46,26,27,47)          0.3244         estimate D2E/DX2                !
 ! D123  D(19,28,29,13)          1.0482         estimate D2E/DX2                !
 ! D124  D(19,28,29,49)       -179.893          estimate D2E/DX2                !
 ! D125  D(48,28,29,13)       -179.7443         estimate D2E/DX2                !
 ! D126  D(48,28,29,49)         -0.6855         estimate D2E/DX2                !
 ! D127  D(12,30,31,9)           0.3188         estimate D2E/DX2                !
 ! D128  D(12,30,31,51)       -179.6248         estimate D2E/DX2                !
 ! D129  D(50,30,31,9)        -179.4891         estimate D2E/DX2                !
 ! D130  D(50,30,31,51)          0.5673         estimate D2E/DX2                !
 ! D131  D(1,32,33,34)          -1.045          estimate D2E/DX2                !
 ! D132  D(1,32,33,53)         179.6975         estimate D2E/DX2                !
 ! D133  D(52,32,33,34)        179.5448         estimate D2E/DX2                !
 ! D134  D(52,32,33,53)          0.2873         estimate D2E/DX2                !
 ! D135  D(32,33,34,35)          0.2639         estimate D2E/DX2                !
 ! D136  D(32,33,34,54)       -179.6715         estimate D2E/DX2                !
 ! D137  D(53,33,34,35)        179.5159         estimate D2E/DX2                !
 ! D138  D(53,33,34,54)         -0.4196         estimate D2E/DX2                !
 ! D139  D(33,34,35,36)          0.7061         estimate D2E/DX2                !
 ! D140  D(33,34,35,55)        179.7303         estimate D2E/DX2                !
 ! D141  D(54,34,35,36)       -179.3585         estimate D2E/DX2                !
 ! D142  D(54,34,35,55)         -0.3342         estimate D2E/DX2                !
 ! D143  D(34,35,36,1)          -0.8955         estimate D2E/DX2                !
 ! D144  D(34,35,36,56)        179.11           estimate D2E/DX2                !
 ! D145  D(55,35,36,1)        -179.9259         estimate D2E/DX2                !
 ! D146  D(55,35,36,56)          0.0797         estimate D2E/DX2                !
 --------------------------------------------------------------------------------
 Trust Radius=3.00D-01 FncErr=1.00D-07 GrdErr=1.00D-06 EigMax=2.50D+02 EigMin=1.00D-04
 Number of steps in this run=    315 maximum allowed number of steps=    336.
 GradGradGradGradGradGradGradGradGradGradGradGradGradGradGradGradGradGrad

 Stoichiometry    C31H20N4S
 Framework group  C1[X(C31H20N4S)]
 Deg. of freedom   162
 Full point group                 C1      NOp   1
 Largest Abelian subgroup         C1      NOp   1
 Largest concise Abelian subgroup C1      NOp   1
                         Standard orientation:                         
 ---------------------------------------------------------------------
 Center     Atomic      Atomic             Coordinates (Angstroms)
 Number     Number       Type             X           Y           Z
 ---------------------------------------------------------------------
      1          6           0       -5.247445   -1.168906   -0.384623
      2          7           0       -4.538201    0.042218   -0.204849
      3          6           0       -5.251639    1.247996   -0.008596
      4          6           0       -6.389180    1.264455    0.795735
      5          6           0       -7.107145    2.436779    0.965723
      6          6           0       -6.691336    3.611799    0.355624
      7          6           0       -5.549537    3.600624   -0.432833
      8          6           0       -4.836404    2.427028   -0.623895
      9          6           0       -3.127463    0.045313   -0.217708
     10          6           0       -2.428008   -0.729447   -1.139266
     11          6           0       -1.043441   -0.725623   -1.145305
     12          6           0       -0.323969    0.050827   -0.240641
     13          6           0        1.154473    0.070503   -0.286296
     14          6           0        1.946854   -0.169333    0.880222
     15          7           0        1.485002   -0.419763    2.111986
     16         16           0        2.763490   -0.636838    3.046054
     17          7           0        3.952078   -0.437753    1.994362
     18          6           0        3.376220   -0.182555    0.813102
     19          6           0        4.054602    0.078629   -0.416315
     20          6           0        5.531061    0.105022   -0.495607
     21          6           0        6.176028    1.191191   -1.082066
     22          6           0        7.555301    1.222093   -1.184334
     23          6           0        8.303756    0.152832   -0.701564
     24          6           0        9.737130    0.175489   -0.811132
     25          7           0       10.882398    0.193037   -0.902027
     26          6           0        7.668597   -0.938561   -0.112446
     27          6           0        6.291389   -0.954788   -0.004542
     28          6           0        3.266415    0.313811   -1.503343
     29          6           0        1.843528    0.299715   -1.441463
     30          6           0       -1.029931    0.817584    0.684635
     31          6           0       -2.412551    0.819104    0.695879
     32          6           0       -6.397214   -1.196513   -1.170655
     33          6           0       -7.109441   -2.374630   -1.324551
     34          6           0       -6.675069   -3.544133   -0.716395
     35          6           0       -5.521007   -3.521652    0.053720
     36          6           0       -4.813596   -2.342244    0.228991
     37          1           0       -6.710409    0.350508    1.278050
     38          1           0       -7.991399    2.431901    1.590062
     39          1           0       -7.251057    4.527075    0.494441
     40          1           0       -5.217691    4.509692   -0.917801
     41          1           0       -3.954599    2.419330   -1.251687
     42          1           0       -2.974562   -1.340391   -1.846124
     43          1           0       -0.511759   -1.341765   -1.860572
     44          1           0        5.589052    2.026686   -1.441276
     45          1           0        8.055218    2.071439   -1.628909
     46          1           0        8.257231   -1.767907    0.254894
     47          1           0        5.795569   -1.798710    0.454583
     48          1           0        3.737263    0.507774   -2.459646
     49          1           0        1.290135    0.494894   -2.351788
     50          1           0       -0.491112    1.417717    1.406340
     51          1           0       -2.950007    1.423440    1.415452
     52          1           0       -6.732639   -0.286570   -1.651278
     53          1           0       -8.003661   -2.378944   -1.934583
     54          1           0       -7.230242   -4.463966   -0.842544
     55          1           0       -5.174265   -4.426232    0.536801
     56          1           0       -3.921738   -2.325201    0.842086
 ---------------------------------------------------------------------
 Rotational constants (GHZ):           0.2659185           0.0348167           0.0336867
 Standard basis: 6-31+G(d,p) (6D, 7F)
 There are   788 symmetry adapted cartesian basis functions of A   symmetry.
 There are   788 symmetry adapted basis functions of A   symmetry.
   788 basis functions,  1316 primitive gaussians,   788 cartesian basis functions
   125 alpha electrons      125 beta electrons
       nuclear repulsion energy      3387.9413010371 Hartrees.
 NAtoms=   56 NActive=   56 NUniq=   56 SFac= 1.00D+00 NAtFMM=   60 NAOKFM=F Big=F
 Integral buffers will be    131072 words long.
 Raffenetti 2 integral format.
 Two-electron integral symmetry is turned on.
 One-electron integrals computed using PRISM.
 NBasis=   788 RedAO= T EigKep=  1.08D-06  NBF=   788
 NBsUse=   780 1.00D-06 EigRej=  9.49D-07 NBFU=   780
 ExpMin= 4.05D-02 ExpMax= 2.19D+04 ExpMxC= 3.30D+03 IAcc=3 IRadAn=         5 AccDes= 0.00D+00
 Harris functional with IExCor=33909 and IRadAn=       5 diagonalized for initial guess.
 HarFok:  IExCor=33909 AccDes= 0.00D+00 IRadAn=         5 IDoV= 1 UseB2=F ITyADJ=14
 ICtDFT=  3500011 ScaDFX=  1.000000  1.000000  1.000000  1.000000
 FoFCou: FMM=F IPFlag=           0 FMFlag=      100000 FMFlg1=           0
         NFxFlg=           0 DoJE=T BraDBF=F KetDBF=T FulRan=T
         wScrn=  0.000000 ICntrl=       500 IOpCl=  0 I1Cent=   200000004 NGrid=           0
         NMat0=    1 NMatS0=      1 NMatT0=    0 NMatD0=    1 NMtDS0=    0 NMtDT0=    0
 Petite list used in FoFCou.
 Requested convergence on RMS density matrix=1.00D-08 within 128 cycles.
 Requested convergence on MAX density matrix=1.00D-06.
 Requested convergence on             energy=1.00D-06.
 No special actions if energy rises.
 SCF Done:  E(RLC-wHPBE) =  -1809.10178897     A.U. after   18 cycles
            NFock= 18  Conv=0.43D-08     -V/T= 2.0079

 **********************************************************************

            Population analysis using the SCF Density.

 **********************************************************************

 Orbital symmetries:
       Occupied  (A) (A) (A) (A) (A) (A) (A) (A) (A) (A) (A) (A)
                 (A) (A) (A) (A) (A) (A) (A) (A) (A) (A) (A) (A)
                 (A) (A) (A) (A) (A) (A) (A) (A) (A) (A) (A) (A)
                 (A) (A) (A) (A) (A) (A) (A) (A) (A) (A) (A) (A)
                 (A) (A) (A) (A) (A) (A) (A) (A) (A) (A) (A) (A)
                 (A) (A) (A) (A) (A) (A) (A) (A) (A) (A) (A) (A)
                 (A) (A) (A) (A) (A) (A) (A) (A) (A) (A) (A) (A)
                 (A) (A) (A) (A) (A) (A) (A) (A) (A) (A) (A) (A)
                 (A) (A) (A) (A) (A) (A) (A) (A) (A) (A) (A) (A)
                 (A) (A) (A) (A) (A) (A) (A) (A) (A) (A) (A) (A)
                 (A) (A) (A) (A) (A)
       Virtual   (A) (A) (A) (A) (A) (A) (A) (A) (A) (A) (A) (A)
                 (A) (A) (A) (A) (A) (A) (A) (A) (A) (A) (A) (A)
                 (A) (A) (A) (A) (A) (A) (A) (A) (A) (A) (A) (A)
                 (A) (A) (A) (A) (A) (A) (A) (A) (A) (A) (A) (A)
                 (A) (A) (A) (A) (A) (A) (A) (A) (A) (A) (A) (A)
                 (A) (A) (A) (A) (A) (A) (A) (A) (A) (A) (A) (A)
                 (A) (A) (A) (A) (A) (A) (A) (A) (A) (A) (A) (A)
                 (A) (A) (A) (A) (A) (A) (A) (A) (A) (A) (A) (A)
                 (A) (A) (A) (A) (A) (A) (A) (A) (A) (A) (A) (A)
                 (A) (A) (A) (A) (A) (A) (A) (A) (A) (A) (A) (A)
                 (A) (A) (A) (A) (A) (A) (A) (A) (A) (A) (A) (A)
                 (A) (A) (A) (A) (A) (A) (A) (A) (A) (A) (A) (A)
                 (A) (A) (A) (A) (A) (A) (A) (A) (A) (A) (A) (A)
                 (A) (A) (A) (A) (A) (A) (A) (A) (A) (A) (A) (A)
                 (A) (A) (A) (A) (A) (A) (A) (A) (A) (A) (A) (A)
                 (A) (A) (A) (A) (A) (A) (A) (A) (A) (A) (A) (A)
                 (A) (A) (A) (A) (A) (A) (A) (A) (A) (A) (A) (A)
                 (A) (A) (A) (A) (A) (A) (A) (A) (A) (A) (A) (A)
                 (A) (A) (A) (A) (A) (A) (A) (A) (A) (A) (A) (A)
                 (A) (A) (A) (A) (A) (A) (A) (A) (A) (A) (A) (A)
                 (A) (A) (A) (A) (A) (A) (A) (A) (A) (A) (A) (A)
                 (A) (A) (A) (A) (A) (A) (A) (A) (A) (A) (A) (A)
                 (A) (A) (A) (A) (A) (A) (A) (A) (A) (A) (A) (A)
                 (A) (A) (A) (A) (A) (A) (A) (A) (A) (A) (A) (A)
                 (A) (A) (A) (A) (A) (A) (A) (A) (A) (A) (A) (A)
                 (A) (A) (A) (A) (A) (A) (A) (A) (A) (A) (A) (A)
                 (A) (A) (A) (A) (A) (A) (A) (A) (A) (A) (A) (A)
                 (A) (A) (A) (A) (A) (A) (A) (A) (A) (A) (A) (A)
                 (A) (A) (A) (A) (A) (A) (A) (A) (A) (A) (A) (A)
                 (A) (A) (A) (A) (A) (A) (A) (A) (A) (A) (A) (A)
                 (A) (A) (A) (A) (A) (A) (A) (A) (A) (A) (A) (A)
                 (A) (A) (A) (A) (A) (A) (A) (A) (A) (A) (A) (A)
                 (A) (A) (A) (A) (A) (A) (A) (A) (A) (A) (A) (A)
                 (A) (A) (A) (A) (A) (A) (A) (A) (A) (A) (A) (A)
                 (A) (A) (A) (A) (A) (A) (A) (A) (A) (A) (A) (A)
                 (A) (A) (A) (A) (A) (A) (A) (A) (A) (A) (A) (A)
                 (A) (A) (A) (A) (A) (A) (A) (A) (A) (A) (A) (A)
                 (A) (A) (A) (A) (A) (A) (A) (A) (A) (A) (A) (A)
                 (A) (A) (A) (A) (A) (A) (A) (A) (A) (A) (A) (A)
                 (A) (A) (A) (A) (A) (A) (A) (A) (A) (A) (A) (A)
                 (A) (A) (A) (A) (A) (A) (A) (A) (A) (A) (A) (A)
                 (A) (A) (A) (A) (A) (A) (A) (A) (A) (A) (A) (A)
                 (A) (A) (A) (A) (A) (A) (A) (A) (A) (A) (A) (A)
                 (A) (A) (A) (A) (A) (A) (A) (A) (A) (A) (A) (A)
                 (A) (A) (A) (A) (A) (A) (A) (A) (A) (A) (A) (A)
                 (A) (A) (A) (A) (A) (A) (A) (A) (A) (A) (A) (A)
                 (A) (A) (A) (A) (A) (A) (A) (A) (A) (A) (A) (A)
                 (A) (A) (A) (A) (A) (A) (A) (A) (A) (A) (A) (A)
                 (A) (A) (A) (A) (A) (A) (A) (A) (A) (A) (A) (A)
                 (A) (A) (A) (A) (A) (A) (A) (A) (A) (A) (A) (A)
                 (A) (A) (A) (A) (A) (A) (A) (A) (A) (A) (A) (A)
                 (A) (A) (A) (A) (A) (A) (A) (A) (A) (A) (A) (A)
                 (A) (A) (A) (A) (A) (A) (A) (A) (A) (A) (A) (A)
                 (A) (A) (A) (A) (A) (A) (A) (A) (A) (A) (A) (A)
                 (A) (A) (A) (A) (A) (A) (A)
 The electronic state is 1-A.
 Alpha  occ. eigenvalues --  -88.28101 -14.15155 -14.15130 -14.14633 -14.10704
 Alpha  occ. eigenvalues --  -10.06728 -10.06611 -10.05739 -10.05249 -10.04971
 Alpha  occ. eigenvalues --  -10.04955 -10.04243 -10.04243 -10.04178 -10.04031
 Alpha  occ. eigenvalues --  -10.03532 -10.03417 -10.03220 -10.02972 -10.02864
 Alpha  occ. eigenvalues --  -10.02756 -10.02270 -10.01582 -10.01385 -10.01073
 Alpha  occ. eigenvalues --  -10.01064 -10.01049 -10.01036 -10.01032 -10.00993
 Alpha  occ. eigenvalues --  -10.00786 -10.00750 -10.00710 -10.00701 -10.00588
 Alpha  occ. eigenvalues --  -10.00586  -7.87527  -5.89765  -5.89028  -5.88859
 Alpha  occ. eigenvalues --   -1.06932  -1.00047  -0.93958  -0.93583  -0.92259
 Alpha  occ. eigenvalues --   -0.90886  -0.89504  -0.89358  -0.87646  -0.84501
 Alpha  occ. eigenvalues --   -0.81561  -0.81264  -0.80731  -0.80030  -0.79001
 Alpha  occ. eigenvalues --   -0.78766  -0.78384  -0.77917  -0.74997  -0.71209
 Alpha  occ. eigenvalues --   -0.69097  -0.68634  -0.67715  -0.67679  -0.66798
 Alpha  occ. eigenvalues --   -0.65375  -0.65084  -0.64754  -0.63120  -0.61881
 Alpha  occ. eigenvalues --   -0.61345  -0.59003  -0.58941  -0.57444  -0.57098
 Alpha  occ. eigenvalues --   -0.55242  -0.54591  -0.53885  -0.53550  -0.53168
 Alpha  occ. eigenvalues --   -0.52522  -0.51980  -0.51074  -0.50485  -0.50320
 Alpha  occ. eigenvalues --   -0.49522  -0.49363  -0.49026  -0.48425  -0.47717
 Alpha  occ. eigenvalues --   -0.47623  -0.47441  -0.47262  -0.47005  -0.45093
 Alpha  occ. eigenvalues --   -0.44423  -0.44167  -0.43784  -0.43685  -0.43611
 Alpha  occ. eigenvalues --   -0.43474  -0.43162  -0.42016  -0.41444  -0.41198
 Alpha  occ. eigenvalues --   -0.40866  -0.40490  -0.40407  -0.40121  -0.39494
 Alpha  occ. eigenvalues --   -0.39397  -0.39184  -0.37873  -0.37199  -0.36113
 Alpha  occ. eigenvalues --   -0.34250  -0.34069  -0.33635  -0.33026  -0.32862
 Alpha  occ. eigenvalues --   -0.32811  -0.31775  -0.31631  -0.29702  -0.24684
 Alpha virt. eigenvalues --   -0.05170  -0.01304   0.01285   0.01362   0.01499
 Alpha virt. eigenvalues --    0.02092   0.03488   0.03680   0.03905   0.04113
 Alpha virt. eigenvalues --    0.04275   0.04658   0.04758   0.05085   0.05298
 Alpha virt. eigenvalues --    0.05401   0.06121   0.06390   0.06624   0.06826
 Alpha virt. eigenvalues --    0.07096   0.07347   0.07356   0.07616   0.07743
 Alpha virt. eigenvalues --    0.08001   0.08163   0.08502   0.08717   0.09011
 Alpha virt. eigenvalues --    0.09495   0.09602   0.09824   0.10149   0.10342
 Alpha virt. eigenvalues --    0.10473   0.11052   0.11328   0.11521   0.11668
 Alpha virt. eigenvalues --    0.11960   0.12073   0.12829   0.12854   0.13432
 Alpha virt. eigenvalues --    0.13459   0.13674   0.13873   0.14084   0.14221
 Alpha virt. eigenvalues --    0.14785   0.15101   0.15251   0.15764   0.16085
 Alpha virt. eigenvalues --    0.16365   0.16376   0.16613   0.16785   0.16914
 Alpha virt. eigenvalues --    0.17164   0.17208   0.17350   0.17736   0.18014
 Alpha virt. eigenvalues --    0.18109   0.18312   0.18527   0.18793   0.18959
 Alpha virt. eigenvalues --    0.19056   0.19286   0.19427   0.19607   0.19765
 Alpha virt. eigenvalues --    0.19906   0.20117   0.20450   0.20794   0.20928
 Alpha virt. eigenvalues --    0.20999   0.21126   0.21239   0.21605   0.21964
 Alpha virt. eigenvalues --    0.22342   0.22884   0.22903   0.23048   0.23129
 Alpha virt. eigenvalues --    0.23683   0.23798   0.23917   0.24149   0.24360
 Alpha virt. eigenvalues --    0.24502   0.24544   0.24796   0.24965   0.25220
 Alpha virt. eigenvalues --    0.25310   0.25333   0.25769   0.25964   0.26113
 Alpha virt. eigenvalues --    0.26231   0.26607   0.26862   0.27083   0.27157
 Alpha virt. eigenvalues --    0.27459   0.27535   0.27710   0.27849   0.28113
 Alpha virt. eigenvalues --    0.28317   0.28526   0.28664   0.28765   0.28929
 Alpha virt. eigenvalues --    0.29230   0.29290   0.29591   0.29666   0.29833
 Alpha virt. eigenvalues --    0.29932   0.30137   0.30430   0.30804   0.30957
 Alpha virt. eigenvalues --    0.31123   0.31180   0.31233   0.31286   0.31633
 Alpha virt. eigenvalues --    0.31751   0.31936   0.32036   0.32239   0.32451
 Alpha virt. eigenvalues --    0.32691   0.32842   0.32933   0.33151   0.33607
 Alpha virt. eigenvalues --    0.33703   0.34004   0.34040   0.34160   0.34308
 Alpha virt. eigenvalues --    0.34703   0.34792   0.35003   0.35242   0.35453
 Alpha virt. eigenvalues --    0.35649   0.35832   0.35889   0.36079   0.36610
 Alpha virt. eigenvalues --    0.36693   0.37078   0.37108   0.37499   0.37629
 Alpha virt. eigenvalues --    0.37680   0.37796   0.38156   0.38515   0.38860
 Alpha virt. eigenvalues --    0.39051   0.39308   0.39346   0.39641   0.40134
 Alpha virt. eigenvalues --    0.40327   0.41199   0.41581   0.41691   0.42014
 Alpha virt. eigenvalues --    0.42402   0.42772   0.43191   0.43392   0.43652
 Alpha virt. eigenvalues --    0.44113   0.44278   0.44590   0.44729   0.44903
 Alpha virt. eigenvalues --    0.45418   0.46417   0.46815   0.47488   0.47817
 Alpha virt. eigenvalues --    0.48702   0.49026   0.49976   0.50665   0.51543
 Alpha virt. eigenvalues --    0.52003   0.52786   0.54264   0.54711   0.56928
 Alpha virt. eigenvalues --    0.57375   0.58755   0.61410   0.62758   0.63194
 Alpha virt. eigenvalues --    0.64303   0.64545   0.65988   0.66925   0.66995
 Alpha virt. eigenvalues --    0.67966   0.69092   0.70807   0.71148   0.71576
 Alpha virt. eigenvalues --    0.71978   0.72414   0.72753   0.73024   0.73519
 Alpha virt. eigenvalues --    0.73873   0.74242   0.74535   0.74923   0.75305
 Alpha virt. eigenvalues --    0.75672   0.76060   0.76184   0.76565   0.76788
 Alpha virt. eigenvalues --    0.77319   0.77690   0.77828   0.77849   0.78172
 Alpha virt. eigenvalues --    0.78484   0.79122   0.79446   0.79704   0.79828
 Alpha virt. eigenvalues --    0.80227   0.80635   0.80690   0.81345   0.81440
 Alpha virt. eigenvalues --    0.81701   0.82018   0.82343   0.82630   0.83031
 Alpha virt. eigenvalues --    0.83638   0.84057   0.84473   0.85019   0.85258
 Alpha virt. eigenvalues --    0.85569   0.86172   0.86522   0.86701   0.87003
 Alpha virt. eigenvalues --    0.87252   0.88246   0.88953   0.89629   0.89758
 Alpha virt. eigenvalues --    0.89784   0.90403   0.90989   0.92034   0.92124
 Alpha virt. eigenvalues --    0.92406   0.92858   0.93214   0.93413   0.93692
 Alpha virt. eigenvalues --    0.93891   0.94164   0.94867   0.95556   0.95931
 Alpha virt. eigenvalues --    0.96254   0.96566   0.96848   0.97218   0.97907
 Alpha virt. eigenvalues --    0.97937   0.98887   0.99432   0.99982   1.00989
 Alpha virt. eigenvalues --    1.01154   1.01510   1.02373   1.03164   1.03241
 Alpha virt. eigenvalues --    1.03963   1.04888   1.05132   1.05516   1.05651
 Alpha virt. eigenvalues --    1.06073   1.06656   1.07008   1.07124   1.07838
 Alpha virt. eigenvalues --    1.08306   1.08579   1.09351   1.10141   1.10963
 Alpha virt. eigenvalues --    1.11239   1.11326   1.11763   1.13055   1.13228
 Alpha virt. eigenvalues --    1.13827   1.14502   1.14675   1.15221   1.16366
 Alpha virt. eigenvalues --    1.17012   1.17398   1.17722   1.18002   1.18834
 Alpha virt. eigenvalues --    1.19370   1.19874   1.19915   1.20816   1.21220
 Alpha virt. eigenvalues --    1.21500   1.22684   1.23571   1.24024   1.24177
 Alpha virt. eigenvalues --    1.24861   1.25137   1.25810   1.26171   1.27415
 Alpha virt. eigenvalues --    1.27781   1.28252   1.29110   1.29573   1.30053
 Alpha virt. eigenvalues --    1.30612   1.31306   1.31878   1.32469   1.32769
 Alpha virt. eigenvalues --    1.33203   1.33604   1.34535   1.34902   1.35701
 Alpha virt. eigenvalues --    1.36270   1.36369   1.37146   1.37806   1.38284
 Alpha virt. eigenvalues --    1.38750   1.39143   1.39698   1.39950   1.40471
 Alpha virt. eigenvalues --    1.40927   1.41261   1.41841   1.42109   1.42950
 Alpha virt. eigenvalues --    1.43408   1.43679   1.43871   1.43936   1.44612
 Alpha virt. eigenvalues --    1.45157   1.45604   1.45836   1.45915   1.46174
 Alpha virt. eigenvalues --    1.46728   1.47580   1.48455   1.49419   1.49496
 Alpha virt. eigenvalues --    1.50888   1.52767   1.53712   1.54541   1.54796
 Alpha virt. eigenvalues --    1.55531   1.56175   1.57946   1.62384   1.63211
 Alpha virt. eigenvalues --    1.65131   1.66293   1.69700   1.73005   1.73626
 Alpha virt. eigenvalues --    1.74349   1.75390   1.76177   1.76843   1.78287
 Alpha virt. eigenvalues --    1.78382   1.79526   1.79791   1.80310   1.80445
 Alpha virt. eigenvalues --    1.81854   1.82172   1.82953   1.83464   1.85068
 Alpha virt. eigenvalues --    1.86330   1.87385   1.88162   1.89381   1.89835
 Alpha virt. eigenvalues --    1.90056   1.90442   1.90503   1.91657   1.91747
 Alpha virt. eigenvalues --    1.92402   1.92578   1.93461   1.93975   1.94059
 Alpha virt. eigenvalues --    1.96021   1.96418   1.96573   1.97062   1.97469
 Alpha virt. eigenvalues --    1.98045   1.98186   1.98447   1.98969   1.99049
 Alpha virt. eigenvalues --    1.99709   2.00186   2.00356   2.00815   2.01353
 Alpha virt. eigenvalues --    2.02132   2.02652   2.03373   2.03529   2.03910
 Alpha virt. eigenvalues --    2.04231   2.04769   2.05153   2.06419   2.06688
 Alpha virt. eigenvalues --    2.07172   2.07211   2.08703   2.08991   2.09642
 Alpha virt. eigenvalues --    2.10963   2.11053   2.11628   2.12071   2.12485
 Alpha virt. eigenvalues --    2.12700   2.15115   2.19589   2.19819   2.21133
 Alpha virt. eigenvalues --    2.22292   2.24921   2.25761   2.27056   2.28443
 Alpha virt. eigenvalues --    2.29041   2.29705   2.29975   2.30544   2.30729
 Alpha virt. eigenvalues --    2.31294   2.31681   2.32111   2.32306   2.33106
 Alpha virt. eigenvalues --    2.34167   2.34735   2.36436   2.37215   2.39208
 Alpha virt. eigenvalues --    2.40009   2.40490   2.40838   2.41015   2.41190
 Alpha virt. eigenvalues --    2.41565   2.41933   2.42738   2.43283   2.43607
 Alpha virt. eigenvalues --    2.43734   2.44087   2.44504   2.44988   2.45279
 Alpha virt. eigenvalues --    2.46418   2.46830   2.47398   2.48617   2.48872
 Alpha virt. eigenvalues --    2.49791   2.50267   2.50938   2.51489   2.51732
 Alpha virt. eigenvalues --    2.51892   2.53025   2.53884   2.53917   2.54757
 Alpha virt. eigenvalues --    2.55506   2.56350   2.56369   2.56926   2.57246
 Alpha virt. eigenvalues --    2.58547   2.59460   2.60039   2.60294   2.60732
 Alpha virt. eigenvalues --    2.60912   2.61082   2.61687   2.62031   2.62514
 Alpha virt. eigenvalues --    2.62687   2.62883   2.63296   2.64117   2.64988
 Alpha virt. eigenvalues --    2.65265   2.66525   2.66628   2.67096   2.67906
 Alpha virt. eigenvalues --    2.69514   2.70946   2.71392   2.72627   2.73053
 Alpha virt. eigenvalues --    2.75124   2.75188   2.76752   2.77763   2.78991
 Alpha virt. eigenvalues --    2.79515   2.79654   2.81076   2.82258   2.83270
 Alpha virt. eigenvalues --    2.84428   2.85577   2.85664   2.86423   2.88860
 Alpha virt. eigenvalues --    2.89941   2.91218   2.92773   2.96779   2.96882
 Alpha virt. eigenvalues --    2.98074   3.01204   3.02159   3.03487   3.06440
 Alpha virt. eigenvalues --    3.08542   3.10149   3.10782   3.11392   3.11891
 Alpha virt. eigenvalues --    3.12411   3.14301   3.16991   3.21643   3.22736
 Alpha virt. eigenvalues --    3.23106   3.24308   3.26688   3.29448   3.29549
 Alpha virt. eigenvalues --    3.29782   3.30325   3.31259   3.31384   3.31830
 Alpha virt. eigenvalues --    3.32731   3.35382   3.36042   3.39115   3.40445
 Alpha virt. eigenvalues --    3.41171   3.42253   3.43136   3.47234   3.48762
 Alpha virt. eigenvalues --    3.55009   3.56266   3.57749   3.57786   3.70395
 Alpha virt. eigenvalues --    3.85593   3.86772   3.92613   3.94179   3.98678
 Alpha virt. eigenvalues --    4.13797   4.25745   4.27784   4.31151   4.32223
 Alpha virt. eigenvalues --    4.32551   4.34135   4.34415   4.35195   4.36317
 Alpha virt. eigenvalues --    4.38214   4.40475   4.41036   4.42742   4.45303
 Alpha virt. eigenvalues --    4.48153   4.49015   4.49431   4.50521   4.51223
 Alpha virt. eigenvalues --    4.54221   4.54755   4.55030   4.55626   4.57354
 Alpha virt. eigenvalues --    4.58336   4.61272   4.62978   4.65097   4.71864
 Alpha virt. eigenvalues --    4.83543   4.87221   4.89592   4.93661   4.96105
          Condensed to atoms (all electrons):
 Mulliken charges:
               1
     1  C   -0.690053
     2  N    0.293670
     3  C   -0.558549
     4  C    0.447344
     5  C   -0.247347
     6  C   -0.070783
     7  C   -0.311873
     8  C    0.022038
     9  C   -0.808523
    10  C   -0.011452
    11  C   -0.442289
    12  C    0.536989
    13  C    0.436850
    14  C   -0.053686
    15  N   -0.298721
    16  S    0.981921
    17  N   -0.305042
    18  C   -0.147440
    19  C    0.111958
    20  C    0.464384
    21  C   -0.157644
    22  C   -0.425915
    23  C    0.477966
    24  C   -0.132426
    25  N   -0.524367
    26  C    0.044129
    27  C   -0.188163
    28  C   -0.639596
    29  C   -0.730384
    30  C   -0.309743
    31  C    0.293720
    32  C    0.267929
    33  C   -0.245020
    34  C   -0.095514
    35  C   -0.272456
    36  C    0.258455
    37  H    0.149832
    38  H    0.147655
    39  H    0.144066
    40  H    0.146620
    41  H    0.151528
    42  H    0.150922
    43  H    0.144010
    44  H    0.152818
    45  H    0.167687
    46  H    0.167315
    47  H    0.157246
    48  H    0.153171
    49  H    0.155267
    50  H    0.146734
    51  H    0.150772
    52  H    0.150840
    53  H    0.147368
    54  H    0.144103
    55  H    0.147320
    56  H    0.154358
 Sum of Mulliken charges =  -0.00000
 Mulliken charges with hydrogens summed into heavy atoms:
               1
     1  C   -0.690053
     2  N    0.293670
     3  C   -0.558549
     4  C    0.597176
     5  C   -0.099693
     6  C    0.073283
     7  C   -0.165253
     8  C    0.173566
     9  C   -0.808523
    10  C    0.139470
    11  C   -0.298279
    12  C    0.536989
    13  C    0.436850
    14  C   -0.053686
    15  N   -0.298721
    16  S    0.981921
    17  N   -0.305042
    18  C   -0.147440
    19  C    0.111958
    20  C    0.464384
    21  C   -0.004826
    22  C   -0.258227
    23  C    0.477966
    24  C   -0.132426
    25  N   -0.524367
    26  C    0.211445
    27  C   -0.030917
    28  C   -0.486425
    29  C   -0.575117
    30  C   -0.163009
    31  C    0.444492
    32  C    0.418769
    33  C   -0.097652
    34  C    0.048590
    35  C   -0.125136
    36  C    0.412813
 Electronic spatial extent (au):  <R**2>=          30004.3130
 Charge=              0.0000 electrons
 Dipole moment (field-independent basis, Debye):
    X=             -6.0377    Y=              0.1451    Z=             -0.7437  Tot=              6.0851
 Quadrupole moment (field-independent basis, Debye-Ang):
   XX=           -287.6094   YY=           -200.1448   ZZ=           -208.7160
   XY=             -1.3485   XZ=              3.8288   YZ=             -3.5738
 Traceless Quadrupole moment (field-independent basis, Debye-Ang):
   XX=            -55.4527   YY=             32.0120   ZZ=             23.4407
   XY=             -1.3485   XZ=              3.8288   YZ=             -3.5738
 Octapole moment (field-independent basis, Debye-Ang**2):
  XXX=          -1265.2886  YYY=             -2.5325  ZZZ=             21.9761  XYY=            -15.8183
  XXY=            -23.5261  XXZ=             81.5943  XZZ=              3.6497  YZZ=              2.9673
  YYZ=              2.9247  XYZ=            -33.8520
 Hexadecapole moment (field-independent basis, Debye-Ang**3):
 XXXX=         -50963.2680 YYYY=          -3287.8551 ZZZZ=          -1981.9360 XXXY=           -307.6299
 XXXZ=           1163.8398 YYYX=             -6.9884 YYYZ=            -74.3430 ZZZX=             76.0915
 ZZZY=            -35.9464 XXYY=          -6181.9704 XXZZ=          -6628.4718 YYZZ=           -942.1397
 XXYZ=            -40.0577 YYXZ=              2.7988 ZZXY=             25.4191
 N-N= 3.387941301037D+03 E-N=-1.099114108843D+04  KE= 1.794835208180D+03
 Calling FoFJK, ICntrl=      2127 FMM=F ISym2X=0 I1Cent= 0 IOpClX= 0 NMat=1 NMatS=1 NMatT=0.
 ***** Axes restored to original set *****
 -------------------------------------------------------------------
 Center     Atomic                   Forces (Hartrees/Bohr)
 Number     Number              X              Y              Z
 -------------------------------------------------------------------
      1        6           0.004020975   -0.005674976   -0.001444877
      2        7           0.000069101   -0.000069734    0.000004737
      3        6           0.003273095    0.006284231    0.001190827
      4        6          -0.003148217    0.003781809   -0.002575475
      5        6          -0.004245813    0.000337261   -0.002898224
      6        6          -0.002580952   -0.005035796   -0.001170245
      7        6           0.002291267   -0.003905112    0.001900942
      8        6           0.004438822   -0.001612823    0.002863196
      9        6          -0.007723732   -0.000770273   -0.000198651
     10        6          -0.000780918    0.003318856    0.004509288
     11        6           0.000824663    0.002414659    0.004233116
     12        6           0.010021490    0.000519736   -0.000492255
     13        6          -0.009500691    0.002218253   -0.009780538
     14        6          -0.004471600   -0.002399983    0.005961333
     15        7          -0.024579579   -0.002309983    0.002197561
     16       16           0.000052676    0.008734246   -0.029375003
     17        7           0.024365489    0.000788130    0.003060565
     18        6           0.004227407   -0.001486453    0.006442267
     19        6           0.009159013    0.003438611   -0.009269615
     20        6          -0.009749350   -0.000017640   -0.000654453
     21        6          -0.001242300   -0.004014988    0.001972471
     22        6           0.001184142   -0.005286848    0.002329838
     23        6           0.012990703    0.000802343    0.000562012
     24        6          -0.051128808   -0.001876390   -0.002653425
     25        7           0.053888835    0.002028846    0.002779997
     26        6           0.001716740    0.005186985   -0.001955717
     27        6          -0.001878165    0.003761836   -0.001886344
     28        6          -0.008721626   -0.003401736    0.008916374
     29        6           0.008489352   -0.001993867    0.009307108
     30        6           0.001547521   -0.002545415   -0.003981950
     31        6          -0.001315987   -0.003259718   -0.003928097
     32        6          -0.002714168   -0.004255082    0.002800056
     33        6          -0.004023237   -0.000600889    0.002973556
     34        6          -0.003185827    0.004601400    0.001364835
     35        6           0.001866393    0.004170631   -0.002066894
     36        6           0.004018039    0.001959604   -0.002919318
     37        1          -0.002697153    0.006028993   -0.002893822
     38        1          -0.006304102    0.000000569   -0.004234340
     39        1          -0.003545717   -0.006617103   -0.001390273
     40        1           0.002984257   -0.006383000    0.002871241
     41        1           0.005827521    0.000080605    0.004083118
     42        1          -0.003425918    0.003269924    0.005143468
     43        1           0.003344596    0.003811280    0.005006001
     44        1          -0.003312344   -0.006195340    0.002196331
     45        1           0.003900676   -0.005862117    0.002643008
     46        1           0.003688590    0.005997481   -0.002332381
     47        1          -0.003469846    0.005725349   -0.002800783
     48        1           0.003118147   -0.001515892    0.006226247
     49        1          -0.003488904   -0.002067176    0.005937141
     50        1           0.003570114   -0.003155460   -0.005086727
     51        1          -0.003180089   -0.003488357   -0.005054211
     52        1          -0.001893537   -0.006194607    0.002947569
     53        1          -0.006101747   -0.000685974    0.004435578
     54        1          -0.004225844    0.006213885    0.001512901
     55        1           0.002087314    0.006622283   -0.002968803
     56        1           0.005669238    0.000584926   -0.004360263
 -------------------------------------------------------------------
 Cartesian Forces:  Max     0.053888835 RMS     0.007954958

 GradGradGradGradGradGradGradGradGradGradGradGradGradGradGradGradGradGrad
 Berny optimization.
 FormGI is forming the generalized inverse of G from B-inverse, IUseBI=4.
 Internal  Forces:  Max     0.053998606 RMS     0.006062384
 Search for a local minimum.
 Step number   1 out of a maximum of  315
 All quantities printed in internal units (Hartrees-Bohrs-Radians)
 Mixed Optimization -- RFO/linear search
 Second derivative matrix not updated -- first step.
 ITU=  0
     Eigenvalues ---    0.01040   0.01046   0.01494   0.01497   0.01513
     Eigenvalues ---    0.01549   0.01737   0.01753   0.01814   0.01822
     Eigenvalues ---    0.01831   0.01831   0.01954   0.01971   0.01971
     Eigenvalues ---    0.01991   0.02051   0.02125   0.02177   0.02181
     Eigenvalues ---    0.02187   0.02189   0.02189   0.02209   0.02211
     Eigenvalues ---    0.02220   0.02220   0.02222   0.02225   0.02230
     Eigenvalues ---    0.02232   0.02233   0.02241   0.02243   0.02250
     Eigenvalues ---    0.02250   0.02251   0.02252   0.02252   0.02254
     Eigenvalues ---    0.02256   0.02259   0.02260   0.02261   0.02262
     Eigenvalues ---    0.02266   0.02269   0.02269   0.02270   0.02279
     Eigenvalues ---    0.02369   0.02569   0.05012   0.05012   0.15996
     Eigenvalues ---    0.15998   0.15998   0.15998   0.15999   0.15999
     Eigenvalues ---    0.15999   0.15999   0.15999   0.15999   0.15999
     Eigenvalues ---    0.16000   0.16000   0.16000   0.16000   0.16000
     Eigenvalues ---    0.16000   0.16000   0.16000   0.16000   0.21999
     Eigenvalues ---    0.21999   0.22000   0.22000   0.22000   0.22000
     Eigenvalues ---    0.22480   0.22964   0.22974   0.23478   0.23479
     Eigenvalues ---    0.23999   0.23999   0.24474   0.24994   0.24996
     Eigenvalues ---    0.24997   0.24997   0.24998   0.24999   0.24999
     Eigenvalues ---    0.24999   0.24999   0.25000   0.25000   0.25000
     Eigenvalues ---    0.25000   0.34652   0.34705   0.35577   0.35582
     Eigenvalues ---    0.35626   0.35691   0.35691   0.35695   0.35696
     Eigenvalues ---    0.35698   0.35699   0.35704   0.35704   0.35706
     Eigenvalues ---    0.35711   0.35720   0.35732   0.35778   0.35781
     Eigenvalues ---    0.35836   0.35852   0.35858   0.36485   0.39406
     Eigenvalues ---    0.39898   0.40563   0.41457   0.42759   0.42776
     Eigenvalues ---    0.42918   0.42920   0.43045   0.43071   0.43075
     Eigenvalues ---    0.43225   0.43237   0.43267   0.43877   0.46717
     Eigenvalues ---    0.46787   0.46790   0.46854   0.47001   0.47006
     Eigenvalues ---    0.47282   0.47285   0.47457   0.47582   0.47780
     Eigenvalues ---    0.47786   0.48064   0.48066   0.48462   0.48670
     Eigenvalues ---    0.48979   0.49188   0.50275   0.51375   0.54932
     Eigenvalues ---    0.56943   1.35269
 RFO step:  Lambda=-1.98321593D-02 EMin= 1.04006301D-02
 Linear search not attempted -- first point.
 Iteration  1 RMS(Cart)=  0.06779775 RMS(Int)=  0.00088936
 Iteration  2 RMS(Cart)=  0.00286453 RMS(Int)=  0.00000707
 Iteration  3 RMS(Cart)=  0.00000485 RMS(Int)=  0.00000679
 Iteration  4 RMS(Cart)=  0.00000000 RMS(Int)=  0.00000679
 Variable       Old X    -DE/DX   Delta X   Delta X   Delta X     New X
                                 (Linear)    (Quad)   (Total)
    R1        2.67392   0.00839   0.00000   0.01856   0.01856   2.69249
    R2        2.63247   0.01438   0.00000   0.02957   0.02958   2.66205
    R3        2.63308   0.01370   0.00000   0.02813   0.02814   2.66122
    R4        2.67342   0.00824   0.00000   0.01822   0.01822   2.69164
    R5        2.66603   0.00813   0.00000   0.01772   0.01772   2.68375
    R6        2.63291   0.01429   0.00000   0.02940   0.02941   2.66232
    R7        2.63285   0.01375   0.00000   0.02820   0.02821   2.66106
    R8        2.61760   0.01284   0.00000   0.02569   0.02569   2.64330
    R9        2.04502   0.00720   0.00000   0.01910   0.01910   2.06413
   R10        2.62243   0.01314   0.00000   0.02644   0.02644   2.64886
   R11        2.04556   0.00759   0.00000   0.02015   0.02015   2.06572
   R12        2.62222   0.01288   0.00000   0.02583   0.02582   2.64805
   R13        2.04430   0.00763   0.00000   0.02022   0.02022   2.06452
   R14        2.62011   0.01207   0.00000   0.02410   0.02409   2.64421
   R15        2.04555   0.00761   0.00000   0.02018   0.02018   2.06574
   R16        2.04559   0.00711   0.00000   0.01888   0.01888   2.06447
   R17        2.63124   0.01421   0.00000   0.02912   0.02912   2.66036
   R18        2.63513   0.01358   0.00000   0.02802   0.02802   2.66315
   R19        2.61649   0.01213   0.00000   0.02414   0.02414   2.64063
   R20        2.04547   0.00699   0.00000   0.01854   0.01854   2.06401
   R21        2.63136   0.01353   0.00000   0.02764   0.02764   2.65900
   R22        2.04748   0.00712   0.00000   0.01897   0.01897   2.06644
   R23        2.79543   0.00524   0.00000   0.01431   0.01431   2.80974
   R24        2.63374   0.01307   0.00000   0.02681   0.02681   2.66054
   R25        2.70314   0.00743   0.00000   0.01686   0.01686   2.71999
   R26        2.57845   0.01857   0.00000   0.03462   0.03462   2.61307
   R27        2.53059   0.01408   0.00000   0.02330   0.02330   2.55388
   R28        2.70420   0.01595   0.00000   0.03509   0.03508   2.73928
   R29        3.02010   0.02346   0.00000   0.04466   0.04467   3.06477
   R30        3.02264   0.02357   0.00000   0.04512   0.04513   3.06776
   R31        2.52977   0.01430   0.00000   0.02366   0.02366   2.55343
   R32        2.69899   0.00807   0.00000   0.01836   0.01836   2.71736
   R33        2.79457   0.00660   0.00000   0.01798   0.01798   2.81255
   R34        2.57598   0.01930   0.00000   0.03592   0.03592   2.61190
   R35        2.63187   0.01399   0.00000   0.02861   0.02861   2.66047
   R36        2.63374   0.01369   0.00000   0.02809   0.02809   2.66183
   R37        2.61425   0.01292   0.00000   0.02559   0.02559   2.63984
   R38        2.04547   0.00735   0.00000   0.01951   0.01951   2.06498
   R39        2.62976   0.01424   0.00000   0.02908   0.02908   2.65884
   R40        2.04314   0.00752   0.00000   0.01987   0.01987   2.06301
   R41        2.71692   0.00277   0.00000   0.00661   0.00661   2.72353
   R42        2.63319   0.01380   0.00000   0.02838   0.02838   2.66156
   R43        2.17130   0.05400   0.00000   0.03934   0.03934   2.21064
   R44        2.61070   0.01338   0.00000   0.02634   0.02634   2.63704
   R45        2.04339   0.00741   0.00000   0.01960   0.01960   2.06299
   R46        2.04303   0.00725   0.00000   0.01915   0.01915   2.06218
   R47        2.69154   0.00504   0.00000   0.01224   0.01223   2.70377
   R48        2.04740   0.00712   0.00000   0.01896   0.01896   2.06635
   R49        2.04670   0.00719   0.00000   0.01911   0.01911   2.06581
   R50        2.61286   0.01246   0.00000   0.02461   0.02461   2.63747
   R51        2.04522   0.00697   0.00000   0.01848   0.01848   2.06371
   R52        2.04568   0.00691   0.00000   0.01833   0.01833   2.06402
   R53        2.61774   0.01286   0.00000   0.02572   0.02572   2.64346
   R54        2.04537   0.00711   0.00000   0.01886   0.01886   2.06423
   R55        2.62275   0.01295   0.00000   0.02607   0.02607   2.64882
   R56        2.04561   0.00757   0.00000   0.02010   0.02010   2.06572
   R57        2.62219   0.01295   0.00000   0.02596   0.02595   2.64814
   R58        2.04425   0.00767   0.00000   0.02030   0.02030   2.06454
   R59        2.61995   0.01214   0.00000   0.02424   0.02423   2.64418
   R60        2.04568   0.00755   0.00000   0.02004   0.02004   2.06572
   R61        2.04544   0.00717   0.00000   0.01903   0.01903   2.06447
    A1        2.09712   0.00173   0.00000   0.00638   0.00636   2.10348
    A2        2.10453  -0.00069   0.00000  -0.00258  -0.00260   2.10193
    A3        2.08150  -0.00104   0.00000  -0.00373  -0.00372   2.07778
    A4        2.08791   0.00244   0.00000   0.00903   0.00903   2.09693
    A5        2.09663  -0.00094   0.00000  -0.00348  -0.00348   2.09315
    A6        2.09864  -0.00150   0.00000  -0.00554  -0.00554   2.09310
    A7        2.09658   0.00198   0.00000   0.00732   0.00730   2.10388
    A8        2.10564  -0.00100   0.00000  -0.00370  -0.00372   2.10192
    A9        2.08092  -0.00098   0.00000  -0.00353  -0.00353   2.07739
   A10        2.09905   0.00010   0.00000   0.00071   0.00072   2.09977
   A11        2.08250   0.00023   0.00000   0.00124   0.00123   2.08373
   A12        2.10159  -0.00033   0.00000  -0.00190  -0.00191   2.09968
   A13        2.10291   0.00020   0.00000   0.00096   0.00096   2.10386
   A14        2.08332  -0.00009   0.00000  -0.00039  -0.00040   2.08292
   A15        2.09689  -0.00012   0.00000  -0.00058  -0.00058   2.09631
   A16        2.08236  -0.00016   0.00000  -0.00088  -0.00089   2.08147
   A17        2.10011   0.00015   0.00000   0.00082   0.00083   2.10093
   A18        2.10072   0.00001   0.00000   0.00006   0.00006   2.10078
   A19        2.10405   0.00017   0.00000   0.00029   0.00028   2.10433
   A20        2.09447   0.00015   0.00000   0.00116   0.00116   2.09563
   A21        2.08454  -0.00031   0.00000  -0.00141  -0.00141   2.08313
   A22        2.09688   0.00066   0.00000   0.00249   0.00250   2.09938
   A23        2.08621  -0.00034   0.00000  -0.00127  -0.00128   2.08493
   A24        2.10009  -0.00033   0.00000  -0.00122  -0.00122   2.09887
   A25        2.10265   0.00091   0.00000   0.00336   0.00336   2.10601
   A26        2.10355   0.00047   0.00000   0.00173   0.00173   2.10528
   A27        2.07698  -0.00138   0.00000  -0.00509  -0.00509   2.07189
   A28        2.09865   0.00052   0.00000   0.00212   0.00212   2.10077
   A29        2.08590  -0.00005   0.00000   0.00009   0.00009   2.08599
   A30        2.09861  -0.00047   0.00000  -0.00222  -0.00222   2.09639
   A31        2.11226   0.00065   0.00000   0.00247   0.00247   2.11473
   A32        2.08520  -0.00040   0.00000  -0.00161  -0.00161   2.08360
   A33        2.08569  -0.00026   0.00000  -0.00084  -0.00084   2.08485
   A34        2.09875   0.00051   0.00000   0.00207   0.00207   2.10082
   A35        2.06732  -0.00107   0.00000  -0.00432  -0.00433   2.06300
   A36        2.11697   0.00056   0.00000   0.00224   0.00224   2.11921
   A37        2.12496   0.00034   0.00000   0.00165   0.00165   2.12661
   A38        2.13303  -0.00017   0.00000  -0.00023  -0.00023   2.13281
   A39        2.02510  -0.00017   0.00000  -0.00141  -0.00142   2.02367
   A40        2.20238  -0.00185   0.00000  -0.00383  -0.00382   2.19856
   A41        2.11368   0.00038   0.00000   0.00065   0.00065   2.11433
   A42        1.96699   0.00147   0.00000   0.00326   0.00324   1.97023
   A43        1.86200  -0.00040   0.00000  -0.00153  -0.00152   1.86047
   A44        1.76528  -0.00184   0.00000  -0.00249  -0.00246   1.76282
   A45        1.85903  -0.00026   0.00000  -0.00081  -0.00081   1.85822
   A46        1.97148   0.00103   0.00000   0.00157   0.00156   1.97303
   A47        2.10961   0.00039   0.00000   0.00090   0.00090   2.11051
   A48        2.20198  -0.00142   0.00000  -0.00239  -0.00239   2.19959
   A49        2.12191   0.00070   0.00000   0.00275   0.00275   2.12466
   A50        2.03012  -0.00065   0.00000  -0.00274  -0.00275   2.02737
   A51        2.13111  -0.00004   0.00000  -0.00000   0.00000   2.13111
   A52        2.09307   0.00054   0.00000   0.00217   0.00217   2.09525
   A53        2.10855   0.00110   0.00000   0.00424   0.00424   2.11279
   A54        2.08148  -0.00164   0.00000  -0.00643  -0.00643   2.07505
   A55        2.10629   0.00099   0.00000   0.00380   0.00379   2.11008
   A56        2.08357  -0.00017   0.00000  -0.00007  -0.00007   2.08349
   A57        2.09311  -0.00081   0.00000  -0.00364  -0.00364   2.08947
   A58        2.08681   0.00051   0.00000   0.00194   0.00194   2.08875
   A59        2.10476  -0.00025   0.00000  -0.00093  -0.00092   2.10383
   A60        2.09159  -0.00026   0.00000  -0.00102  -0.00102   2.09057
   A61        2.09169   0.00073   0.00000   0.00273   0.00274   2.09443
   A62        2.09824  -0.00131   0.00000  -0.00493  -0.00493   2.09331
   A63        2.09325   0.00058   0.00000   0.00220   0.00220   2.09545
   A64        2.09050   0.00050   0.00000   0.00195   0.00195   2.09245
   A65        2.09004  -0.00031   0.00000  -0.00129  -0.00129   2.08875
   A66        2.10264  -0.00019   0.00000  -0.00065  -0.00065   2.10199
   A67        2.10294   0.00096   0.00000   0.00373   0.00373   2.10667
   A68        2.08635  -0.00018   0.00000  -0.00019  -0.00019   2.08616
   A69        2.09384  -0.00078   0.00000  -0.00349  -0.00350   2.09034
   A70        2.14276   0.00008   0.00000   0.00177   0.00175   2.14451
   A71        2.07541   0.00022   0.00000   0.00060   0.00061   2.07602
   A72        2.06494  -0.00030   0.00000  -0.00232  -0.00231   2.06262
   A73        2.14474  -0.00002   0.00000   0.00112   0.00110   2.14583
   A74        2.07582  -0.00009   0.00000  -0.00106  -0.00105   2.07476
   A75        2.06252   0.00011   0.00000   0.00002   0.00003   2.06254
   A76        2.10891   0.00065   0.00000   0.00238   0.00238   2.11129
   A77        2.08931  -0.00037   0.00000  -0.00142  -0.00143   2.08788
   A78        2.08496  -0.00029   0.00000  -0.00098  -0.00099   2.08397
   A79        2.10218   0.00062   0.00000   0.00245   0.00245   2.10464
   A80        2.08374  -0.00010   0.00000  -0.00008  -0.00008   2.08365
   A81        2.09727  -0.00052   0.00000  -0.00237  -0.00237   2.09489
   A82        2.09891   0.00013   0.00000   0.00081   0.00082   2.09972
   A83        2.08252   0.00021   0.00000   0.00117   0.00116   2.08367
   A84        2.10172  -0.00034   0.00000  -0.00193  -0.00194   2.09978
   A85        2.10255   0.00025   0.00000   0.00109   0.00109   2.10365
   A86        2.08372  -0.00012   0.00000  -0.00055  -0.00055   2.08317
   A87        2.09684  -0.00012   0.00000  -0.00055  -0.00055   2.09629
   A88        2.08270  -0.00018   0.00000  -0.00104  -0.00104   2.08165
   A89        2.09993   0.00015   0.00000   0.00086   0.00086   2.10079
   A90        2.10056   0.00003   0.00000   0.00018   0.00018   2.10074
   A91        2.10402   0.00019   0.00000   0.00041   0.00040   2.10442
   A92        2.09501   0.00008   0.00000   0.00079   0.00079   2.09580
   A93        2.08403  -0.00027   0.00000  -0.00117  -0.00117   2.08287
   A94        2.09648   0.00065   0.00000   0.00250   0.00250   2.09899
   A95        2.08603  -0.00028   0.00000  -0.00098  -0.00098   2.08505
   A96        2.10067  -0.00038   0.00000  -0.00152  -0.00153   2.09914
   A97        3.14075   0.00001   0.00000   0.00018   0.00018   3.14092
   A98        3.14510  -0.00008   0.00000  -0.00113  -0.00113   3.14398
    D1        0.71117   0.00037   0.00000   0.01011   0.01012   0.72130
    D2       -2.43352   0.00037   0.00000   0.01004   0.01005  -2.42346
    D3       -2.42064   0.00003   0.00000   0.00143   0.00142  -2.41922
    D4        0.71786   0.00003   0.00000   0.00137   0.00136   0.71921
    D5       -3.11710  -0.00043   0.00000  -0.01058  -0.01060  -3.12770
    D6        0.01431  -0.00019   0.00000  -0.00488  -0.00489   0.00942
[...]
 003354,-0.00043668,0.00018767,-0.00067805,0.00000497,-0.00004346,-0.00
 004698,0.00002384,-0.00001487,0.00004410,-0.00000984,-0.00000866,-0.00
 000684,0.00000231,0.00000777,0.00000038,-0.00000303,-0.00000314,0.0000
 0189,-0.00002598,0.00002160,0.00002227,0.00004945,0.00009910,-0.000003
 40,0.00002318,0.00001158,0.00003793,-0.00000067,0.00000619,0.00001760,
 0.00009905,0.00000933,0.00000515,-0.00012438,-0.00001765,-0.00002256,0
 .00002680,-0.00002394,-0.00005998,-0.00000252,0.00001023,0.00003967,0.
 00000693,-0.00000561,-0.00002468,0.00000612,0.00000086,0.00000604,-0.0
 0001384,0.00000369,-0.00000225,0.00005617,-0.00001382,-0.00005381,-0.0
 0003536,-0.00000205,-0.00000252,0.00000514,0.00000256,0.00001746,-0.00
 000631,-0.00000468,0.00000597,-0.00000608,-0.00000008,-0.00000229,0.00
 000687,0.00000140,0.00000073,-0.00000698,-0.00000132,-0.00000125,-0.00
 000257,0.00000108,-0.00000570,0.00000830,-0.00000127,-0.00001579,-0.00
 008909,0.00000621,0.00005321,0.00008466,0.00003361,0.00006987,-0.00001
 286,0.00000231,-0.00000735,-0.00000866,-0.00003782,0.00000188,0.002916
 91,-0.00127565,0.00320931,0.00655621,-0.00645618,-0.00256700,-0.128345
 64,0.11142072,0.07059698,-0.00768208,0.01767913,0.00775985,0.00020676,
 -0.00184426,0.00553978,-0.00000326,0.00000444,-0.00000410,-0.00000083,
 -0.00000292,-0.00000212,0.00000083,0.00000132,-0.00000089,-0.00000072,
 0.00000104,-0.00000103,0.00000212,-0.00000221,-0.00000228,0.00002591,0
 .00000389,0.00002244,-0.00000954,-0.00000069,0.00000230,0.00000158,0.0
 0000152,0.00000103,-0.00000144,0.00000033,-0.00000077,-0.00000113,0.00
 000031,0.00000065,0.00000064,0.00000132,-0.00000006,-0.00000399,-0.000
 00136,-0.00000040,0.00000424,0.00000131,-0.00000133,0.00000082,0.00000
 213,-0.00000682,0.00000189,-0.00000364,0.00000220,0.00025924,-0.000321
 74,-0.00008770,-0.00114673,0.00012320,-0.00214128,0.12932000,-0.000888
 35,-0.00028799,0.00077563,0.00007408,0.00008645,-0.00017528,0.00002842
 ,0.00001156,0.00004065,0.00000887,-0.00001429,-0.00000694,0.00002006,0
 .00002502,0.00000310,0.00000321,-0.00000873,0.00000682,-0.00000181,0.0
 0000461,0.00000107,0.00001117,0.00001570,-0.00003099,-0.00006973,-0.00
 002232,-0.00003105,-0.00001656,0.00001184,0.00000491,0.00001990,-0.000
 00032,-0.00003596,-0.00013510,-0.00000868,0.00000295,0.00018844,0.0000
 1906,0.00002329,-0.00002402,0.00003686,0.00009750,-0.00002268,-0.00001
 800,-0.00005834,-0.00000459,0.00000410,0.00001880,0.00000641,-0.000000
 86,-0.00000796,0.00000263,-0.00000494,0.00000345,-0.00007918,0.0000162
 7,0.00006848,0.00004968,0.00000268,0.00000381,-0.00000842,-0.00000457,
 -0.00002237,0.00000881,0.00000514,-0.00000752,0.00000494,0.00000029,0.
 00000244,-0.00000760,-0.00000144,-0.00000078,0.00000847,0.00000092,0.0
 0000106,0.00000453,-0.00000164,0.00000790,-0.00001270,0.00000180,0.000
 01956,0.00011689,-0.00000779,-0.00006312,-0.00011410,-0.00004491,-0.00
 009108,0.00002226,0.00000569,0.00002427,0.00002098,-0.00000963,0.00000
 268,-0.00189446,-0.00419717,0.00219951,0.01668756,-0.01544670,-0.01269
 857,0.11130218,-0.20630825,-0.08174236,-0.00528087,0.00819115,0.003999
 49,-0.00120163,0.00083863,0.00142478,0.00000614,-0.00000567,0.00001672
 ,-0.00000148,-0.00000182,-0.00000451,-0.00000088,-0.00000320,-0.000000
 76,-0.00000069,-0.00000159,0.00000050,-0.00000953,0.00000315,0.0000055
 7,-0.00001114,-0.00001034,-0.00000217,0.00000382,0.00000055,-0.0000015
 8,-0.00000185,-0.00000095,-0.00000137,0.00000130,0.00000021,0.00000102
 ,0.00000129,-0.00000005,-0.00000075,-0.00000158,-0.00000154,0.00000023
 ,0.00000280,0.00000287,-0.00000031,-0.00000349,0.00000005,0.00000203,0
 .00000242,0.00000237,0.00000136,-0.00000428,0.00000509,0.00000016,0.00
 083115,-0.00082212,-0.00061060,-0.00026140,0.00089436,-0.00006783,-0.1
 1921297,0.21611164,0.00011517,0.00073529,-0.00059787,-0.00060372,0.000
 00457,-0.00065348,0.00009970,-0.00001017,-0.00000073,-0.00000534,-0.00
 000111,0.00005500,-0.00001157,-0.00002418,0.00000255,-0.00000554,0.000
 01160,-0.00000979,0.00000917,-0.00000631,0.00001334,-0.00005097,-0.000
 02290,0.00001142,-0.00000954,0.00013315,-0.00004421,0.00007290,-0.0000
 2383,0.00007357,-0.00003998,-0.00001550,-0.00001501,-0.00009236,0.0000
 0975,0.00000117,0.00014756,0.00000995,0.00000383,0.00000988,0.00003567
 ,0.00009329,-0.00004974,-0.00002059,-0.00005198,-0.00000236,-0.0000021
 0,-0.00000122,0.00003049,0.00000506,-0.00000424,-0.00002479,-0.0000076
 2,-0.00000109,-0.00006191,0.00001049,0.00004794,0.00003927,0.00000155,
 0.00000386,-0.00000823,-0.00000371,-0.00001594,0.00000771,0.00000316,-
 0.00000516,0.00000100,0.00000012,0.00000140,-0.00000399,-0.00000105,-0
 .00000039,0.00000545,0.00000074,0.00000020,0.00000452,-0.00000071,0.00
 000683,-0.00001090,0.00000183,0.00001323,0.00008459,-0.00000167,-0.000
 03653,-0.00008047,-0.00003412,-0.00006282,0.00003081,-0.00000145,0.000
 02800,-0.00005316,-0.00005030,0.00004544,0.00288807,0.00208466,0.00412
 113,-0.00395213,0.00595819,0.00593132,0.07080396,-0.08156095,-0.088559
 22,0.00895024,-0.01489069,-0.00341698,0.00575126,0.00149394,0.00182341
 ,0.00002292,0.00001293,0.00000048,-0.00000316,-0.00000629,-0.00000435,
 0.00000078,-0.00000072,-0.00000203,-0.00000159,-0.00000169,-0.00000193
 ,0.00000433,0.00000255,-0.00000596,0.00001379,0.00000581,-0.00002113,-
 0.00000418,-0.00000114,0.00000086,-0.00000120,-0.00000021,-0.00000104,
 0.00000057,0.00000026,0.00000074,0.00000100,-0.00000018,-0.00000061,-0
 .00000296,-0.00000243,-0.00000004,0.00000067,0.00000242,-0.00000009,-0
 .00000256,-0.00000032,0.00000067,0.00000251,0.00000664,-0.00000487,0.0
 0000137,0.00000829,-0.00000564,-0.00015535,0.00032562,0.00021184,-0.00
 217347,-0.00037155,-0.00187728,-0.07985934,0.08704060,0.08497089,0.001
 48850,0.00226440,0.00454548,0.00025533,0.00107840,0.00000939,-0.000232
 72,0.00019870,0.00000364,0.00000982,-0.00001374,-0.00001196,0.00000206
 ,-0.00000706,-0.00000723,-0.00000889,0.00001262,0.00000011,0.00001030,
 0.00002599,-0.00001213,0.00001461,0.00003641,0.00007116,0.00028727,0.0
 0005017,0.00001715,-0.00009435,-0.00002486,0.00001595,0.00003618,-0.00
 001741,0.00000253,0.00001113,0.00002166,0.00001373,-0.00006513,-0.0000
 0800,-0.00000868,0.00000323,-0.00001522,-0.00004054,0.00001675,0.00000
 350,0.00002091,-0.00000147,-0.00000010,-0.00000516,0.00000310,-0.00000
 221,0.00000135,0.00000147,0.00000445,-0.00000121,0.00002910,-0.0000072
 9,-0.00002575,-0.00002398,-0.00000118,-0.00000264,0.00000558,0.0000006
 5,0.00000917,-0.00000484,-0.00000221,0.00000219,0.00000375,0.00000066,
 0.00000050,-0.00000476,0.00000001,-0.00000038,0.00000305,-0.00000035,0
 .,-0.00000458,-0.00000019,-0.00000359,0.00000846,-0.00000089,-0.000007
 80,-0.00004392,-0.00000075,0.00002465,0.00004023,0.00001098,0.00003503
 ,-0.00001441,-0.00001577,-0.00001030,-0.00001631,0.00001596,-0.0000117
 9,-0.00104279,0.00036420,0.00010463,-0.00046969,-0.00003040,0.00602961
 ,-0.00042448,-0.02196140,0.00471750,-0.05811277,-0.05244884,0.02285370
 ,0.00621507,0.01668670,-0.00405913,0.00000264,-0.00000284,0.00000764,-
 0.00000032,-0.00000203,0.00000239,-0.00000048,0.00000080,0.00000173,0.
 00000707,0.00000786,-0.00000326,-0.00000488,-0.00000195,0.00000129,0.0
 0004002,0.00001805,-0.00001374,-0.00001840,0.00000854,-0.00000918,-0.0
 0000012,0.00000152,-0.00000016,-0.00000048,0.00000031,0.00000013,-0.00
 000030,0.00000064,-0.00000002,-0.00000065,0.00000097,0.00000039,-0.000
 00287,0.00000092,-0.00000056,0.00000083,0.00000478,-0.00000632,-0.0000
 0571,-0.00000128,0.00000020,0.00000564,-0.00000377,-0.00000554,-0.0003
 0008,-0.00005265,-0.00050849,-0.00015809,-0.00111420,0.00022825,-0.000
 99007,0.00009493,-0.00229415,0.05470597,0.00280658,-0.00031508,-0.0019
 1751,-0.00020254,-0.00108035,0.00002446,0.00034044,-0.00001843,0.00017
 135,-0.00005284,-0.00001020,-0.00000713,0.00000676,0.00002300,-0.00000
 227,-0.00000293,-0.00001243,-0.00000144,0.00001568,-0.00001478,0.00002
 438,-0.00003487,-0.00009798,-0.00008905,-0.00040022,-0.00008404,-0.000
 00738,0.00000635,0.00002261,-0.00000620,0.00003585,0.00002054,-0.00009
 079,-0.00027207,-0.00002334,0.00000162,0.00042281,0.00004615,0.0000742
 7,-0.00007282,0.00008329,0.00021564,-0.00004276,-0.00003341,-0.0001324
 2,-0.00000225,0.00001133,0.00005386,-0.00001044,-0.00000509,-0.0000311
 1,0.00002687,-0.00000957,0.00002206,-0.00018665,0.00004042,0.00016651,
 0.00012158,0.00000597,0.00000850,-0.00002126,-0.00001075,-0.00005456,0
 .00002197,0.00001315,-0.00001809,0.00000903,0.00000057,0.00000572,-0.0
 0001254,-0.00000316,-0.00000159,0.00001528,0.00000241,0.00000163,0.000
 01166,-0.00000374,0.00001842,-0.00003081,0.00000446,0.00004912,0.00027
 722,-0.00001594,-0.00016883,-0.00027286,-0.00010355,-0.00021742,0.0000
 3876,0.00002408,0.00005509,0.00004910,-0.00001477,-0.00000193,0.000293
 00,0.00039443,-0.00040966,-0.00058532,0.00150720,0.00101395,0.00084906
 ,-0.00190836,-0.00030490,-0.05213650,-0.30483377,0.06368979,-0.0058072
 1,-0.01628499,0.00664345,0.00001032,-0.00000545,0.00001329,-0.00000355
 ,-0.00000486,-0.00000414,-0.00000109,-0.00000164,-0.00000140,-0.000006
 38,-0.00000811,-0.00000128,-0.00000272,0.00000965,-0.00000069,-0.00003
 636,-0.00004769,0.00001240,0.00002089,-0.00000774,0.00000479,-0.000003
 30,-0.00000323,-0.00000274,0.00000289,0.00000021,0.00000195,0.00000351
 ,-0.00000071,-0.00000153,-0.00000044,-0.00000322,0.00000069,0.00000762
 ,0.00000415,-0.00000022,-0.00000641,-0.00000485,0.00000961,0.00001004,
 -0.00000010,0.00000620,-0.00000815,0.00000308,-0.00000206,-0.00007956,
 -0.00005240,-0.00000930,0.00005924,-0.00020838,-0.00003582,-0.00032460
 ,0.00064214,-0.00011805,0.05526052,0.32153757,0.00462594,-0.00160039,0
 .00335295,0.00001952,-0.00048993,0.00007036,0.00008908,0.00000685,0.00
 008077,-0.00000763,-0.00001518,-0.00000805,-0.00000491,-0.00000145,-0.
 00000960,-0.00000663,0.00000329,0.00000416,0.00000302,-0.00000303,0.00
 000569,-0.00004223,-0.00003035,0.00000242,-0.00012761,0.00001597,-0.00
 001125,-0.00013771,0.00004551,0.00003352,0.00007125,0.00000986,-0.0000
 2340,0.00000601,0.00000481,0.00001731,-0.00002431,0.00000023,0.0000302
 3,-0.00003320,-0.00001074,-0.00002688,0.00003484,0.00001214,0.00000332
 ,0.00000529,0.00000495,0.00001798,-0.00002803,-0.00001041,-0.00001784,
 0.00003562,0.00000810,0.00001730,-0.00000350,0.00000269,0.00001109,-0.
 00000041,0.00000058,-0.00000278,0.00000183,-0.00000224,-0.00000274,-0.
 00000080,0.00000124,-0.00000218,0.00000607,0.00000094,0.00000208,-0.00
 000559,-0.00000032,-0.00000076,0.00000432,-0.00000006,-0.00000031,-0.0
 0000251,-0.00000176,-0.00000080,0.00000356,0.00000044,0.00000465,0.000
 00864,-0.00000753,-0.00002796,-0.00001215,-0.00000267,-0.00000534,-0.0
 0005122,-0.00001020,-0.00002596,0.00008752,-0.00000301,-0.00006780,0.0
 0001096,-0.00059268,-0.00084546,0.00598359,0.00073363,0.00155772,0.002
 42532,0.01843421,0.00006317,0.02351179,0.06379329,-0.06020162,-0.00226
 565,-0.01236434,0.00628714,0.00000992,-0.00000483,-0.00000735,-0.00000
 195,-0.00000423,-0.00000210,0.00000071,0.00000058,-0.00000190,0.000002
 12,-0.00000147,-0.00000697,0.00000040,0.00000408,-0.00000483,0.0000283
 4,-0.00000785,0.00001023,-0.00001215,0.00000468,-0.00000236,-0.0000001
 2,0.00000062,-0.00000050,-0.00000008,0.00000050,0.00000031,0.00000095,
 0.00000035,-0.00000014,0.00000266,0.00000144,0.00000092,-0.00000116,0.
 00000021,-0.00000053,0.00000066,0.00000292,-0.00000284,-0.00000280,-0.
 00000874,0.00000661,0.00000271,-0.00001040,-0.00000487,-0.00050580,0.0
 0002664,-0.00051093,0.00017214,0.00094711,-0.00012503,-0.00227470,-0.0
 0037015,-0.00180601,-0.02927425,-0.06846311,0.05417145,-0.00177205,0.0
 0088254,0.00412675,-0.00208077,0.00101171,-0.00215553,0.00017292,-0.00
 032677,0.00002953,0.00012840,-0.00013824,0.00004137,-0.00004000,0.0000
 1072,-0.00004370,-0.00001084,0.00001260,0.00000595,-0.00000074,0.00000
 937,0.00003079,-0.00003460,0.00000510,-0.00004850,0.00085008,0.0009521
 0,-0.00025160,-0.00042332,0.00038855,-0.00023922,-0.00005041,0.0000235
 1,-0.00013658,-0.00017118,0.00003362,0.00008041,0.00017110,0.00000462,
 0.00001944,0.00000939,0.00004676,0.00011661,-0.00006123,-0.00002800,-0
 .00006809,-0.00000289,-0.00000392,0.00000093,0.00004117,0.00000563,-0.
 00001345,-0.00002338,-0.00000604,0.00000801,-0.00007417,0.00001448,0.0
 0005656,0.00003965,0.00000320,0.00000363,-0.00000558,-0.00000644,-0.00
 001979,0.00000823,0.00000516,-0.00000719,0.00000808,-0.00000099,0.0000
 0285,-0.00001091,-0.00000109,-0.00000130,0.00001124,0.00000105,0.00000
 093,0.00000259,-0.00000006,0.00000830,-0.00000893,-0.00000008,0.000016
 97,0.00009815,-0.00000587,-0.00005243,-0.00009314,-0.00004689,-0.00007
 824,0.00001465,0.00001370,0.00001843,-0.00007320,-0.00015557,0.0001092
 3,0.00296281,-0.00098584,0.00217886,-0.00006691,0.00016616,-0.00075396
 ,0.00251088,0.00306076,0.00354092,-0.00724439,-0.00491319,0.00910027,-
 0.19423834,-0.04401526,0.14188822,-0.00009250,0.00000717,0.00002136,-0
 .00000623,-0.00000855,0.00000234,0.00000070,0.00001009,-0.00000532,-0.
 00000552,0.00000092,-0.00000104,0.00000037,-0.00000146,-0.00001198,0.0
 0008507,0.00003787,-0.00006940,-0.00000917,-0.00001338,-0.00000107,-0.
 00000233,0.00000006,-0.00000198,0.00000131,0.00000036,0.00000123,0.000
 00175,0.00000011,-0.00000092,-0.00000416,-0.00000335,0.00000042,0.0000
 0158,0.00000390,0.00000013,-0.00000398,0.00000009,-0.00000556,-0.00000
 100,0.00001809,-0.00001454,0.00001232,-0.00003511,-0.00002122,-0.00001
 769,0.00010643,0.00032870,-0.00040490,-0.00005317,-0.00040501,-0.00039
 675,-0.00026228,0.00046498,-0.00115960,-0.00010358,-0.00232767,0.20145
 840,-0.02092474,-0.00198192,0.01847881,-0.00102491,0.00221449,0.000153
 92,-0.00020005,-0.00013208,-0.00015498,0.00007016,-0.00001586,0.000000
 98,-0.00000359,0.00000303,-0.00002211,0.00000761,0.00002645,0.00000626
 ,0.00000729,0.00001940,0.00003261,0.00004463,0.00008288,0.00002566,0.0
 0060193,-0.00053880,-0.00004933,0.00046878,-0.00022510,0.00047457,0.00
 005558,-0.00002073,-0.00005904,0.00015717,0.00001604,0.00004452,-0.000
 16566,-0.00000351,0.00002875,-0.00008037,-0.00006421,-0.00016456,0.000
 09231,0.00002181,0.00010296,0.00002587,0.00001675,0.00002988,-0.000105
 06,-0.00002982,-0.00003508,0.00008522,0.00002993,0.00004863,0.00006145
 ,-0.00002028,-0.00007897,-0.00003381,-0.00000324,-0.00000590,0.0000053
 6,0.00000285,0.00001821,-0.00000819,-0.00000435,0.00000595,-0.00000846
 ,-0.00000018,-0.00000196,0.00001185,0.00000257,0.00000103,-0.00001254,
 -0.00000261,-0.00000148,-0.00000452,0.00000040,-0.00001052,0.00001017,
 -0.00000470,-0.00001389,-0.00011860,0.00000040,0.00002814,0.00007735,0
 .00003543,0.00006677,0.00002509,0.00000980,0.00000944,0.00015950,0.000
 02329,-0.00015824,-0.00026994,-0.00524745,0.00077386,0.00035570,-0.001
 08122,-0.00026141,0.00270617,-0.00310196,-0.00148913,0.01701899,0.0088
 5515,-0.01487101,-0.04253035,-0.06769593,0.03893871,-0.00005115,0.0000
 1096,0.00003877,0.00000453,0.00000269,0.00000985,0.00000197,0.00000452
 ,0.00000187,0.00000052,0.00000943,0.00000368,0.00000375,-0.00001521,0.
 00000412,-0.00004342,0.00000454,0.00007409,-0.00003718,0.00001300,-0.0
 0002538,0.00000298,0.00000138,0.00000210,-0.00000191,0.00000067,-0.000
 00143,-0.00000189,0.00000090,0.00000139,0.00000969,0.00000833,0.000000
 96,-0.00000530,-0.00000285,-0.00000353,0.00001272,0.00000265,0.0000040
 0,0.00001274,-0.00000599,-0.00001500,-0.00001129,-0.00003493,0.0000178
 2,-0.00111735,-0.00018121,0.00091153,-0.00005390,0.00011147,-0.0000090
 2,0.00087710,0.00029533,-0.00072330,-0.00043870,0.00083572,-0.00005082
 ,0.04427868,0.06775191,0.00537042,-0.00083908,-0.00116590,-0.00248762,
 0.00016426,-0.00175099,0.00012255,-0.00019267,-0.00000350,0.00007814,-
 0.00007929,0.00004123,-0.00002935,-0.00000745,-0.00001830,-0.00001846,
 -0.00000166,-0.00000748,-0.00000581,0.00000376,0.00001561,-0.00009133,
 -0.00001936,-0.00000393,0.00042878,0.00076331,-0.00005262,0.00046433,-
 0.00016621,0.00051819,-0.00046536,-0.00013998,0.00009439,-0.00006826,0
 .00006709,-0.00000746,0.00016281,0.00000397,0.00001833,0.00005311,0.00
 005105,0.00015456,-0.00009487,-0.00002841,-0.00010139,0.00000470,-0.00
 000380,0.00001299,0.00005971,0.00000454,-0.00004202,-0.00004867,-0.000
 01137,0.00002162,-0.00011953,0.00002305,0.00008607,0.00007343,0.000002
 69,0.00000562,-0.00001379,-0.00000882,-0.00003424,0.00001517,0.0000081
 4,-0.00001265,0.00000860,-0.00000056,0.00000439,-0.00001403,-0.0000021
 3,-0.00000148,0.00001565,0.00000147,0.00000129,0.00000658,0.00000019,0
 .00001409,-0.00001849,0.00000001,0.00002940,0.00014977,-0.00001205,-0.
 00008752,-0.00013510,-0.00006278,-0.00010743,0.00017183,-0.00001353,-0
 .00002681,-0.00034889,-0.00007851,0.00012134,0.00199759,0.00131988,0.0
 0384303,-0.00073907,-0.00027139,-0.00035192,0.00375495,-0.00183466,0.0
 0399227,0.00766428,0.00416705,-0.00348773,0.14155797,0.03908811,-0.159
 17916,-0.00002679,0.00002610,-0.00001009,-0.00000735,-0.00000813,-0.00
 000152,0.00000093,0.00000507,-0.00000552,-0.00000137,-0.00000153,-0.00
 000505,0.00000876,0.00000560,-0.00001893,0.00013916,0.00019655,-0.0004
 8724,-0.00003700,0.00000313,-0.00001743,-0.00000338,0.00000019,-0.0000
 0270,0.00000191,0.00000073,0.00000193,0.00000264,0.00000006,-0.0000014
 3,-0.00000542,-0.00000509,0.00000024,0.00000199,0.00000571,0.00000020,
 -0.00001067,0.00000039,-0.00001511,-0.00000374,0.00000724,-0.00001474,
 0.00001453,-0.00002571,-0.00003911,0.00036950,-0.00001515,0.00008591,-
 0.00043120,-0.00000221,-0.00057130,0.00039103,0.00023205,-0.00025478,-
 0.00239643,-0.00018612,-0.00199429,-0.15546883,-0.04213373,0.16081908\
 \0.00000335,-0.00000307,-0.00000251,-0.00000501,0.00000382,0.00000246,
 0.00000010,-0.00000209,-0.00000036,-0.00000153,0.00000084,-0.00000119,
 0.00000027,0.00000230,-0.00000127,0.00000050,0.00000136,-0.00000215,-0
 .00000051,0.00000110,-0.00000301,0.00000190,-0.00000005,-0.00000189,0.
 00000212,0.00000187,0.00000128,0.00000454,-0.00000066,0.00000173,-0.00
 001403,0.00000117,0.00000537,0.00001536,-0.00000228,-0.00000492,0.0000
 0146,0.00000221,-0.00000301,-0.00001273,0.00000027,-0.00000573,0.00000
 703,0.00000119,-0.00000156,0.00000265,0.00000584,0.00001023,-0.0000093
 7,-0.00000027,-0.00000996,0.00000820,0.00000131,0.00000648,-0.00000078
 ,-0.00000505,-0.00000127,-0.00000748,0.00000218,-0.00000481,0.00000781
 ,-0.00000093,0.00000499,-0.00000216,-0.00000161,-0.00000005,0.00000217
 ,0.00000028,0.00000099,-0.00000188,-0.00000127,0.00000043,0.00000107,-
 0.00000059,0.00000041,-0.00000378,-0.00000069,-0.00000015,0.00000680,0
 .00000121,-0.00000203,-0.00000357,0.00000040,0.00000392,0.00000159,0.0
 0000049,0.00000476,-0.00001196,-0.00000226,-0.00000275,0.00000622,0.00
 000099,-0.00000270,-0.00000306,-0.00000063,0.00000115,0.00000084,-0.00
 000225,0.00000077,0.00000022,-0.00000091,0.00000241,0.00000005,-0.0000
 0177,0.00000249,0.00000140,0.00000224,0.00000303,0.00000026,0.00000123
 ,0.00000018,-0.00000010,0.00000188,-0.00000154,-0.00000012,0.00000147,
 -0.00000322,-0.00000016,0.00000030,-0.00000372,-0.00000034,0.00000006,
 -0.00000198,-0.00000094,-0.00000184,0.00000034,0.00000202,-0.00000316,
 -0.00000003,0.00000030,-0.00000105,-0.00000196,0.00000069,-0.00000217,
 -0.00000040,0.00000023,0.00000207,0.00000087,0.00000080,0.00000154,0.0
 0000155,-0.00000273,-0.00000267,-0.00000057,0.00000266,-0.00000100,-0.
 00000023,0.00000132,0.00000244,-0.00000086,-0.00000150,0.00000099,0.00
 000032,0.00000018,-0.00000104,-0.00000017,0.00000003,-0.00000202,0.000
 00139,0.00000012,-0.00000160,0.00000318,0.00000015,-0.00000032,0.00000
 351,-0.00000068,0.00000021,0.00000176\\\@


 CHARLIE BROWN -- WHICH DO YOU THINK LASTS LONGER IN LIFE, THE GOOD THINGS 
                  OR THE BAD THINGS?
 LINUS --         GOOD THINGS LAST EIGHT SECONDS ..
                  BAD THINGS LAST THREE WEEKS
 CHARLIE BROWN -- WHAT ABOUT IN BETWEEN?
 SNOOPY --        IN BETWEEN YOU SHOULD TAKE A NAP ...
 Job cpu time:      13 days  3 hours 32 minutes 58.5 seconds.
 Elapsed time:       0 days 21 hours  4 minutes 20.2 seconds.
 File lengths (MBytes):  RWF=  14827 Int=      0 D2E=      0 Chk=    122 Scr=      1
 Normal termination of Gaussian 16 at Thu May  7 16:26:02 2026.
