56
	Energy: -1135229.5873375
C         -5.29780        0.99769        0.09397
N         -4.55253       -0.22128        0.03527
C         -5.27318       -1.45495       -0.01972
C         -4.91029       -2.44252       -0.95262
C         -5.62301       -3.64378       -1.00485
C         -6.70430       -3.86404       -0.14166
C         -7.07024       -2.87325        0.77929
C         -6.35876       -1.67230        0.84641
C         -3.15890       -0.20795        0.02958
C         -2.41988       -1.30069        0.55925
C         -1.03898       -1.28120        0.55517
C         -0.29320       -0.18012        0.02691
C          1.16254       -0.18721        0.02347
C          1.96180        0.99291       -0.16770
N          1.47996        2.23988       -0.37009
S          2.81661        3.24618       -0.49142
N          4.02837        2.11111       -0.28556
C          3.41267        0.92185       -0.12536
C          4.08346       -0.34083        0.04487
C          5.54509       -0.48114        0.05665
C          6.15027       -1.71535       -0.29717
C          7.52975       -1.88619       -0.26643
C          8.36215       -0.81870        0.12835
C          9.78698       -0.99149        0.16855
N         10.94999       -1.13623        0.20308
C          7.78284        0.41807        0.47396
C          6.40125        0.58579        0.42916
C          3.25729       -1.48390        0.20715
C          1.87207       -1.41052        0.21232
C         -1.05648        0.91039       -0.49230
C         -2.43978        0.89676       -0.49488
C         -6.40055        1.18636       -0.75711
C         -7.13651        2.37216       -0.68634
C         -6.77779        3.37629        0.22287
C         -5.67897        3.18471        1.07059
C         -4.94176        1.99868        1.01522
H         -4.07774       -2.25903       -1.63599
H         -5.33830       -4.40603       -1.73429
H         -7.26175       -4.80242       -0.18868
H         -7.91054       -3.03853        1.45805
H         -6.63605       -0.90017        1.56782
H         -2.95090       -2.14404        1.00489
H         -0.51691       -2.11773        1.02133
H          5.53046       -2.54669       -0.63872
H          7.97489       -2.84035       -0.55636
H          8.42503        1.24823        0.77587
H          5.96236        1.55137        0.67844
H          3.72256       -2.45635        0.37693
H          1.31585       -2.34022        0.33937
H         -0.52098        1.76570       -0.90327
H         -2.98591        1.73718       -0.92769
H         -6.67150        0.40492       -1.47085
H         -7.98961        2.51565       -1.35397
H         -7.35331        4.30357        0.27168
H         -5.39744        3.95852        1.78886
H         -4.09306        1.84007        1.68468
