 Entering Gaussian System, Link 0=g16
 Input=TPABTDPhCN.com
 Output=TPABTDPhCN.log
 Initial command:
 /home/programs/g16/l1.exe "/tmp/Gau-705682.inp" -scrdir="/tmp/"
 Entering Link 1 = /home/programs/g16/l1.exe PID=    705684.
  
 Copyright (c) 1988-2017, Gaussian, Inc.  All Rights Reserved.
  
 This is part of the Gaussian(R) 16 program.  It is based on
 the Gaussian(R) 09 system (copyright 2009, Gaussian, Inc.),
 the Gaussian(R) 03 system (copyright 2003, Gaussian, Inc.),
 the Gaussian(R) 98 system (copyright 1998, Gaussian, Inc.),
 the Gaussian(R) 94 system (copyright 1995, Gaussian, Inc.),
 the Gaussian 92(TM) system (copyright 1992, Gaussian, Inc.),
 the Gaussian 90(TM) system (copyright 1990, Gaussian, Inc.),
 the Gaussian 88(TM) system (copyright 1988, Gaussian, Inc.),
 the Gaussian 86(TM) system (copyright 1986, Carnegie Mellon
 University), and the Gaussian 82(TM) system (copyright 1983,
 Carnegie Mellon University). Gaussian is a federally registered
 trademark of Gaussian, Inc.
  
 This software contains proprietary and confidential information,
 including trade secrets, belonging to Gaussian, Inc.
  
 This software is provided under written license and may be
 used, copied, transmitted, or stored only in accord with that
 written license.
  
 The following legend is applicable only to US Government
 contracts under FAR:
  
                    RESTRICTED RIGHTS LEGEND
  
 Use, reproduction and disclosure by the US Government is
 subject to restrictions as set forth in subparagraphs (a)
 and (c) of the Commercial Computer Software - Restricted
 Rights clause in FAR 52.227-19.
  
 Gaussian, Inc.
 340 Quinnipiac St., Bldg. 40, Wallingford CT 06492
  
  
 ---------------------------------------------------------------
 Warning -- This program may not be used in any manner that
 competes with the business of Gaussian, Inc. or will provide
 assistance to any competitor of Gaussian, Inc.  The licensee
 of this program is prohibited from giving any competitor of
 Gaussian, Inc. access to this program.  By using this program,
 the user acknowledges that Gaussian, Inc. is engaged in the
 business of creating and licensing software in the field of
 computational chemistry and represents and warrants to the
 licensee that it is not a competitor of Gaussian, Inc. and that
 it will not use this program in any manner prohibited above.
 ---------------------------------------------------------------
  

 Cite this work as:
 Gaussian 16, Revision B.01,
 M. J. Frisch, G. W. Trucks, H. B. Schlegel, G. E. Scuseria, 
 M. A. Robb, J. R. Cheeseman, G. Scalmani, V. Barone, 
 G. A. Petersson, H. Nakatsuji, X. Li, M. Caricato, A. V. Marenich, 
 J. Bloino, B. G. Janesko, R. Gomperts, B. Mennucci, H. P. Hratchian, 
 J. V. Ortiz, A. F. Izmaylov, J. L. Sonnenberg, D. Williams-Young, 
 F. Ding, F. Lipparini, F. Egidi, J. Goings, B. Peng, A. Petrone, 
 T. Henderson, D. Ranasinghe, V. G. Zakrzewski, J. Gao, N. Rega, 
 G. Zheng, W. Liang, M. Hada, M. Ehara, K. Toyota, R. Fukuda, 
 J. Hasegawa, M. Ishida, T. Nakajima, Y. Honda, O. Kitao, H. Nakai, 
 T. Vreven, K. Throssell, J. A. Montgomery, Jr., J. E. Peralta, 
 F. Ogliaro, M. J. Bearpark, J. J. Heyd, E. N. Brothers, K. N. Kudin, 
 V. N. Staroverov, T. A. Keith, R. Kobayashi, J. Normand, 
 K. Raghavachari, A. P. Rendell, J. C. Burant, S. S. Iyengar, 
 J. Tomasi, M. Cossi, J. M. Millam, M. Klene, C. Adamo, R. Cammi, 
 J. W. Ochterski, R. L. Martin, K. Morokuma, O. Farkas, 
 J. B. Foresman, and D. J. Fox, Gaussian, Inc., Wallingford CT, 2016.
 
 ******************************************
 Gaussian 16:  EM64L-G16RevB.01 20-Dec-2017
                 5-May-2026 
 ******************************************
 %chk=mol_opt_s1.chk
 %nproc=15
 Will use up to   15 processors via shared memory.
 %mem=50GB
 ----------------------------------------------------------------------
 # lc-whpbe/6-31+G(d,p) iop(3/108=0174900000) iop(3/107=0174900000) opt
  td
 ----------------------------------------------------------------------
 1/18=20,19=15,26=3,38=1/1,3;
 2/9=110,12=2,17=6,18=5,40=1/2;
 3/5=1,6=6,7=111,11=9,25=1,30=1,71=1,74=-71,107=174900000,108=174900000/1,2,3,8;
 4//1;
 5/5=2,38=5/2;
 8/6=1,10=2/1;
 9/15=2,42=1,70=2/14;
 10/5=4/2;
 6/7=2,8=2,9=2,10=2/1;
 7/12=6,13=5/1,2,3,16;
 1/18=20,19=15,26=3/3(2);
 2/9=110/2;
 99//99;
 2/9=110/2;
 3/5=1,6=6,7=111,11=9,25=1,30=1,71=1,74=-71,107=174900000,108=174900000/1,2,3,8;
 4/5=5,16=3,69=1/1;
 5/5=2,38=5/2;
 8/6=1,10=2/1;
 9/15=2,42=1,49=4,70=2/14;
 10/5=4/2;
 7/12=6,13=5/1,2,3,16;
 1/18=20,19=15,26=3/3(-8);
 2/9=110/2;
 6/7=2,8=2,9=2,10=2/1;
 99/9=10/99;
 -----
 tdOPT
 -----
 Symbolic Z-matrix:
 Charge =  0 Multiplicity = 1
 6                     5.31148   1.00541   0.0615 
 7                     4.58421  -0.21869   0.0035 
 6                     5.29563  -1.45119  -0.06285 
 6                     4.88856  -2.55272   0.7125 
 6                     5.58879  -3.76073   0.64018 
 6                     6.71251  -3.88344  -0.18739 
 6                     7.12558  -2.78396  -0.95072 
 6                     6.42034  -1.57769  -0.89864 
 6                     3.16926  -0.21045   0.00254 
 6                     2.44375  -1.14969  -0.75714 
 6                     1.04978  -1.13949  -0.7482 
 6                     0.32436  -0.18975  -0.00116 
 6                    -1.15628  -0.22528   0.0122 
 6                    -1.96565   0.96632   0.01377 
 7                    -1.4974    2.23047   0.01292 
 16                   -2.80786   3.21159   0.00566 
 7                    -4.01426   2.10257  -0.00117 
 6                    -3.41827   0.89344  -0.00047 
 6                    -4.09789  -0.37387  -0.00108 
 6                    -5.57758  -0.49024   0.00856 
 6                    -6.19859  -1.49499   0.77771 
 6                    -7.58401  -1.65279   0.7757 
 6                    -8.38367  -0.79465  -0.00207 
 6                    -9.81329  -0.95047  -0.00999 
 7                    -10.97783  -1.07948  -0.01728 
 6                    -7.7775    0.22     -0.76687 
 6                    -6.39122   0.36971  -0.75581 
 6                    -3.28109  -1.49159  -0.00294 
 6                    -1.85813  -1.42011   0.00749 
 6                     1.05809   0.7578    0.73988 
 6                     2.45213   0.74152   0.75421 
 6                     6.44431   1.11797   0.88816 
 6                     7.16629   2.31458   0.93239 
 6                     6.76169   3.41823   0.17054 
 6                     5.62949   3.30947  -0.64726 
 6                     4.9125    2.1109   -0.71221 
 1                     4.02141  -2.45476   1.37005 
 1                     5.26056  -4.6078    1.24847 
 1                     7.26203  -4.8266   -0.23552 
 1                     7.99812  -2.86669  -1.60418 
 1                     6.73846  -0.72442  -1.50239 
 1                     2.97991  -1.88145  -1.36536 
 1                     0.51252  -1.86024  -1.37101 
 1                    -5.58752  -2.14729   1.40646 
 1                    -8.05386  -2.43053   1.38117 
 1                    -8.39866   0.88672  -1.36845 
 1                    -5.93096   1.16187  -1.34734 
 1                    -3.74331  -2.48219  -0.02687 
 1                    -1.29835  -2.35856   0.02891 
 1                     0.52945   1.50722   1.33089 
 1                     2.9964    1.47375   1.35461 
 1                     6.75552   0.26163   1.49121 
 1                     8.04503   2.38668   1.57877 
 1                     7.32385   4.35417   0.21299 
 1                     5.30649   4.16026  -1.25307 
 1                     4.0374    2.02519  -1.36084 
 

 GradGradGradGradGradGradGradGradGradGradGradGradGradGradGradGradGradGrad
 Berny optimization.
 Initialization pass.
                           ----------------------------
                           !    Initial Parameters    !
                           ! (Angstroms and Degrees)  !
 --------------------------                            --------------------------
 ! Name  Definition              Value          Derivative Info.                !
 --------------------------------------------------------------------------------
 ! R1    R(1,2)                  1.425          estimate D2E/DX2                !
 ! R2    R(1,32)                 1.4069         estimate D2E/DX2                !
 ! R3    R(1,36)                 1.4071         estimate D2E/DX2                !
 ! R4    R(2,3)                  1.4246         estimate D2E/DX2                !
 ! R5    R(2,9)                  1.415          estimate D2E/DX2                !
 ! R6    R(3,4)                  1.4072         estimate D2E/DX2                !
 ! R7    R(3,8)                  1.4069         estimate D2E/DX2                !
 ! R8    R(4,5)                  1.3982         estimate D2E/DX2                !
 ! R9    R(4,37)                 1.0927         estimate D2E/DX2                !
 ! R10   R(5,6)                  1.4009         estimate D2E/DX2                !
 ! R11   R(5,38)                 1.0933         estimate D2E/DX2                !
 ! R12   R(6,7)                  1.4008         estimate D2E/DX2                !
 ! R13   R(6,39)                 1.0926         estimate D2E/DX2                !
 ! R14   R(7,8)                  1.3983         estimate D2E/DX2                !
 ! R15   R(7,40)                 1.0932         estimate D2E/DX2                !
 ! R16   R(8,41)                 1.0926         estimate D2E/DX2                !
 ! R17   R(9,10)                 1.4091         estimate D2E/DX2                !
 ! R18   R(9,31)                 1.4091         estimate D2E/DX2                !
 ! R19   R(10,11)                1.394          estimate D2E/DX2                !
 ! R20   R(10,42)                1.0922         estimate D2E/DX2                !
 ! R21   R(11,12)                1.4094         estimate D2E/DX2                !
 ! R22   R(11,43)                1.0936         estimate D2E/DX2                !
 ! R23   R(12,13)                1.4811         estimate D2E/DX2                !
 ! R24   R(12,30)                1.409          estimate D2E/DX2                !
 ! R25   R(13,14)                1.4405         estimate D2E/DX2                !
 ! R26   R(13,29)                1.3857         estimate D2E/DX2                !
 ! R27   R(14,15)                1.3481         estimate D2E/DX2                !
 ! R28   R(14,18)                1.4545         estimate D2E/DX2                !
 ! R29   R(15,16)                1.6371         estimate D2E/DX2                !
 ! R30   R(16,17)                1.6387         estimate D2E/DX2                !
 ! R31   R(17,18)                1.348          estimate D2E/DX2                !
 ! R32   R(18,19)                1.438          estimate D2E/DX2                !
 ! R33   R(19,20)                1.4843         estimate D2E/DX2                !
 ! R34   R(19,28)                1.3844         estimate D2E/DX2                !
 ! R35   R(20,21)                1.4095         estimate D2E/DX2                !
 ! R36   R(20,27)                1.4092         estimate D2E/DX2                !
 ! R37   R(21,22)                1.3944         estimate D2E/DX2                !
 ! R38   R(21,44)                1.0928         estimate D2E/DX2                !
 ! R39   R(22,23)                1.4074         estimate D2E/DX2                !
 ! R40   R(22,45)                1.0919         estimate D2E/DX2                !
 ! R41   R(23,24)                1.4381         estimate D2E/DX2                !
 ! R42   R(23,26)                1.4078         estimate D2E/DX2                !
 ! R43   R(24,25)                1.1717         estimate D2E/DX2                !
 ! R44   R(26,27)                1.3944         estimate D2E/DX2                !
 ! R45   R(26,46)                1.0919         estimate D2E/DX2                !
 ! R46   R(27,47)                1.0905         estimate D2E/DX2                !
 ! R47   R(28,29)                1.4248         estimate D2E/DX2                !
 ! R48   R(28,48)                1.0934         estimate D2E/DX2                !
 ! R49   R(29,49)                1.0929         estimate D2E/DX2                !
 ! R50   R(30,31)                1.3942         estimate D2E/DX2                !
 ! R51   R(30,50)                1.091          estimate D2E/DX2                !
 ! R52   R(31,51)                1.0922         estimate D2E/DX2                !
 ! R53   R(32,33)                1.3982         estimate D2E/DX2                !
 ! R54   R(32,52)                1.0926         estimate D2E/DX2                !
 ! R55   R(33,34)                1.4008         estimate D2E/DX2                !
 ! R56   R(33,53)                1.0932         estimate D2E/DX2                !
 ! R57   R(34,35)                1.4009         estimate D2E/DX2                !
 ! R58   R(34,54)                1.0926         estimate D2E/DX2                !
 ! R59   R(35,36)                1.3982         estimate D2E/DX2                !
 ! R60   R(35,55)                1.0932         estimate D2E/DX2                !
 ! R61   R(36,56)                1.0926         estimate D2E/DX2                !
 ! A1    A(2,1,32)             120.2371         estimate D2E/DX2                !
 ! A2    A(2,1,36)             120.516          estimate D2E/DX2                !
 ! A3    A(32,1,36)            119.2454         estimate D2E/DX2                !
 ! A4    A(1,2,3)              119.3532         estimate D2E/DX2                !
 ! A5    A(1,2,9)              120.3559         estimate D2E/DX2                !
 ! A6    A(3,2,9)              120.2895         estimate D2E/DX2                !
 ! A7    A(2,3,4)              120.4704         estimate D2E/DX2                !
 ! A8    A(2,3,8)              120.3081         estimate D2E/DX2                !
 ! A9    A(4,3,8)              119.22           estimate D2E/DX2                !
 ! A10   A(3,4,5)              120.195          estimate D2E/DX2                !
 ! A11   A(3,4,37)             119.4039         estimate D2E/DX2                !
 ! A12   A(5,4,37)             120.4011         estimate D2E/DX2                !
 ! A13   A(4,5,6)              120.5278         estimate D2E/DX2                !
 ! A14   A(4,5,38)             119.3591         estimate D2E/DX2                !
 ! A15   A(6,5,38)             120.1066         estimate D2E/DX2                !
 ! A16   A(5,6,7)              119.3199         estimate D2E/DX2                !
 ! A17   A(5,6,39)             120.3346         estimate D2E/DX2                !
 ! A18   A(7,6,39)             120.3455         estimate D2E/DX2                !
 ! A19   A(6,7,8)              120.537          estimate D2E/DX2                !
 ! A20   A(6,7,40)             120.1118         estimate D2E/DX2                !
 ! A21   A(8,7,40)             119.3467         estimate D2E/DX2                !
 ! A22   A(3,8,7)              120.1912         estimate D2E/DX2                !
 ! A23   A(3,8,41)             119.3924         estimate D2E/DX2                !
 ! A24   A(7,8,41)             120.416          estimate D2E/DX2                !
 ! A25   A(2,9,10)             120.7524         estimate D2E/DX2                !
 ! A26   A(2,9,31)             120.8303         estimate D2E/DX2                !
 ! A27   A(10,9,31)            118.4162         estimate D2E/DX2                !
 ! A28   A(9,10,11)            120.4306         estimate D2E/DX2                !
 ! A29   A(9,10,42)            119.6078         estimate D2E/DX2                !
 ! A30   A(11,10,42)           119.9574         estimate D2E/DX2                !
 ! A31   A(10,11,12)           121.5353         estimate D2E/DX2                !
 ! A32   A(10,11,43)           118.8661         estimate D2E/DX2                !
 ! A33   A(12,11,43)           119.5455         estimate D2E/DX2                !
 ! A34   A(11,12,13)           120.2094         estimate D2E/DX2                !
 ! A35   A(11,12,30)           117.6396         estimate D2E/DX2                !
 ! A36   A(13,12,30)           122.1377         estimate D2E/DX2                !
 ! A37   A(12,13,14)           122.81           estimate D2E/DX2                !
 ! A38   A(12,13,29)           121.8014         estimate D2E/DX2                !
 ! A39   A(14,13,29)           115.3841         estimate D2E/DX2                !
 ! A40   A(13,14,15)           125.4894         estimate D2E/DX2                !
 ! A41   A(13,14,18)           121.3109         estimate D2E/DX2                !
 ! A42   A(15,14,18)           113.1956         estimate D2E/DX2                !
 ! A43   A(14,15,16)           106.4964         estimate D2E/DX2                !
 ! A44   A(15,16,17)           100.5878         estimate D2E/DX2                !
 ! A45   A(16,17,18)           106.3522         estimate D2E/DX2                !
 ! A46   A(14,18,17)           113.3662         estimate D2E/DX2                !
 ! A47   A(14,18,19)           121.0744         estimate D2E/DX2                !
 ! A48   A(17,18,19)           125.5572         estimate D2E/DX2                !
 ! A49   A(18,19,20)           122.6992         estimate D2E/DX2                !
 ! A50   A(18,19,28)           115.6381         estimate D2E/DX2                !
 ! A51   A(20,19,28)           121.6615         estimate D2E/DX2                !
 ! A52   A(19,20,21)           119.9102         estimate D2E/DX2                !
 ! A53   A(19,20,27)           121.6169         estimate D2E/DX2                !
 ! A54   A(21,20,27)           118.4636         estimate D2E/DX2                !
 ! A55   A(20,21,22)           121.1736         estimate D2E/DX2                !
 ! A56   A(20,21,44)           119.5436         estimate D2E/DX2                !
 ! A57   A(22,21,44)           119.2656         estimate D2E/DX2                !
 ! A58   A(21,22,23)           119.7572         estimate D2E/DX2                !
 ! A59   A(21,22,45)           120.4876         estimate D2E/DX2                !
 ! A60   A(23,22,45)           119.7521         estimate D2E/DX2                !
 ! A61   A(22,23,24)           120.12           estimate D2E/DX2                !
 ! A62   A(22,23,26)           119.6717         estimate D2E/DX2                !
 ! A63   A(24,23,26)           120.2078         estimate D2E/DX2                !
 ! A64   A(23,26,27)           120.0762         estimate D2E/DX2                !
 ! A65   A(23,26,46)           119.6331         estimate D2E/DX2                !
 ! A66   A(27,26,46)           120.2907         estimate D2E/DX2                !
 ! A67   A(20,27,26)           120.8518         estimate D2E/DX2                !
 ! A68   A(20,27,47)           119.5913         estimate D2E/DX2                !
 ! A69   A(26,27,47)           119.5569         estimate D2E/DX2                !
 ! A70   A(19,28,29)           123.2808         estimate D2E/DX2                !
 ! A71   A(19,28,48)           118.8218         estimate D2E/DX2                !
 ! A72   A(29,28,48)           117.8924         estimate D2E/DX2                !
 ! A73   A(13,29,28)           123.3067         estimate D2E/DX2                !
 ! A74   A(13,29,49)           118.7431         estimate D2E/DX2                !
 ! A75   A(28,29,49)           117.9428         estimate D2E/DX2                !
 ! A76   A(12,30,31)           121.2133         estimate D2E/DX2                !
 ! A77   A(12,30,50)           119.6363         estimate D2E/DX2                !
 ! A78   A(31,30,50)           119.1386         estimate D2E/DX2                !
 ! A79   A(9,31,30)            120.7489         estimate D2E/DX2                !
 ! A80   A(9,31,51)            119.5097         estimate D2E/DX2                !
 ! A81   A(30,31,51)           119.7414         estimate D2E/DX2                !
 ! A82   A(1,32,33)            120.1868         estimate D2E/DX2                !
 ! A83   A(1,32,52)            119.4021         estimate D2E/DX2                !
 ! A84   A(33,32,52)           120.4107         estimate D2E/DX2                !
 ! A85   A(32,33,34)           120.5253         estimate D2E/DX2                !
 ! A86   A(32,33,53)           119.3524         estimate D2E/DX2                !
 ! A87   A(34,33,53)           120.1175         estimate D2E/DX2                !
 ! A88   A(33,34,35)           119.3261         estimate D2E/DX2                !
 ! A89   A(33,34,54)           120.3422         estimate D2E/DX2                !
 ! A90   A(35,34,54)           120.3317         estimate D2E/DX2                !
 ! A91   A(34,35,36)           120.5386         estimate D2E/DX2                !
 ! A92   A(34,35,55)           120.123          estimate D2E/DX2                !
 ! A93   A(36,35,55)           119.3328         estimate D2E/DX2                !
 ! A94   A(1,36,35)            120.1684         estimate D2E/DX2                !
 ! A95   A(1,36,56)            119.465          estimate D2E/DX2                !
 ! A96   A(35,36,56)           120.3664         estimate D2E/DX2                !
 ! A97   L(23,24,25,45,-1)     179.9478         estimate D2E/DX2                !
 ! A98   L(23,24,25,45,-2)     180.1197         estimate D2E/DX2                !
 ! D1    D(32,1,2,3)           -42.8177         estimate D2E/DX2                !
 ! D2    D(32,1,2,9)           137.6116         estimate D2E/DX2                !
 ! D3    D(36,1,2,3)           136.7333         estimate D2E/DX2                !
 ! D4    D(36,1,2,9)           -42.8373         estimate D2E/DX2                !
 ! D5    D(2,1,32,33)          179.2505         estimate D2E/DX2                !
 ! D6    D(2,1,32,52)           -0.5357         estimate D2E/DX2                !
 ! D7    D(36,1,32,33)          -0.3063         estimate D2E/DX2                !
 ! D8    D(36,1,32,52)         179.9075         estimate D2E/DX2                !
 ! D9    D(2,1,36,35)          179.8462         estimate D2E/DX2                !
 ! D10   D(2,1,36,56)            0.0139         estimate D2E/DX2                !
 ! D11   D(32,1,36,35)          -0.5983         estimate D2E/DX2                !
 ! D12   D(32,1,36,56)         179.5694         estimate D2E/DX2                !
 ! D13   D(1,2,3,4)            136.9569         estimate D2E/DX2                !
 ! D14   D(1,2,3,8)            -42.5965         estimate D2E/DX2                !
 ! D15   D(9,2,3,4)            -43.4721         estimate D2E/DX2                !
 ! D16   D(9,2,3,8)            136.9744         estimate D2E/DX2                !
 ! D17   D(1,2,9,10)           143.8573         estimate D2E/DX2                !
 ! D18   D(1,2,9,31)           -35.7544         estimate D2E/DX2                !
 ! D19   D(3,2,9,10)           -35.7093         estimate D2E/DX2                !
 ! D20   D(3,2,9,31)           144.679          estimate D2E/DX2                !
 ! D21   D(2,3,4,5)            179.8259         estimate D2E/DX2                !
 ! D22   D(2,3,4,37)            -0.1573         estimate D2E/DX2                !
 ! D23   D(8,3,4,5)             -0.6158         estimate D2E/DX2                !
 ! D24   D(8,3,4,37)           179.401          estimate D2E/DX2                !
 ! D25   D(2,3,8,7)            179.2925         estimate D2E/DX2                !
 ! D26   D(2,3,8,41)            -0.4827         estimate D2E/DX2                !
 ! D27   D(4,3,8,7)             -0.2665         estimate D2E/DX2                !
 ! D28   D(4,3,8,41)           179.9583         estimate D2E/DX2                !
 ! D29   D(3,4,5,6)              0.9428         estimate D2E/DX2                !
 ! D30   D(3,4,5,38)          -179.9924         estimate D2E/DX2                !
 ! D31   D(37,4,5,6)          -179.0742         estimate D2E/DX2                !
 ! D32   D(37,4,5,38)           -0.0094         estimate D2E/DX2                !
 ! D33   D(4,5,6,7)             -0.3767         estimate D2E/DX2                !
 ! D34   D(4,5,6,39)           179.5178         estimate D2E/DX2                !
 ! D35   D(38,5,6,7)          -179.4346         estimate D2E/DX2                !
 ! D36   D(38,5,6,39)            0.46           estimate D2E/DX2                !
 ! D37   D(5,6,7,8)             -0.5122         estimate D2E/DX2                !
 ! D38   D(5,6,7,40)          -179.7341         estimate D2E/DX2                !
 ! D39   D(39,6,7,8)           179.5933         estimate D2E/DX2                !
 ! D40   D(39,6,7,40)            0.3714         estimate D2E/DX2                !
 ! D41   D(6,7,8,3)              0.8345         estimate D2E/DX2                !
 ! D42   D(6,7,8,41)          -179.3926         estimate D2E/DX2                !
 ! D43   D(40,7,8,3)          -179.9377         estimate D2E/DX2                !
 ! D44   D(40,7,8,41)           -0.1648         estimate D2E/DX2                !
 ! D45   D(2,9,10,11)          179.6953         estimate D2E/DX2                !
 ! D46   D(2,9,10,42)           -1.0463         estimate D2E/DX2                !
 ! D47   D(31,9,10,11)          -0.6838         estimate D2E/DX2                !
 ! D48   D(31,9,10,42)         178.5745         estimate D2E/DX2                !
 ! D49   D(2,9,31,30)          179.2559         estimate D2E/DX2                !
 ! D50   D(2,9,31,51)           -0.776          estimate D2E/DX2                !
 ! D51   D(10,9,31,30)          -0.3647         estimate D2E/DX2                !
 ! D52   D(10,9,31,51)         179.6034         estimate D2E/DX2                !
 ! D53   D(9,10,11,12)           0.8105         estimate D2E/DX2                !
 ! D54   D(9,10,11,43)         178.1469         estimate D2E/DX2                !
 ! D55   D(42,10,11,12)       -178.4453         estimate D2E/DX2                !
 ! D56   D(42,10,11,43)         -1.1089         estimate D2E/DX2                !
 ! D57   D(10,11,12,13)       -178.5812         estimate D2E/DX2                !
 ! D58   D(10,11,12,30)          0.1192         estimate D2E/DX2                !
 ! D59   D(43,11,12,13)          4.1002         estimate D2E/DX2                !
 ! D60   D(43,11,12,30)       -177.1994         estimate D2E/DX2                !
 ! D61   D(11,12,13,14)       -142.2871         estimate D2E/DX2                !
 ! D62   D(11,12,13,29)         36.9038         estimate D2E/DX2                !
 ! D63   D(30,12,13,14)         39.0725         estimate D2E/DX2                !
 ! D64   D(30,12,13,29)       -141.7365         estimate D2E/DX2                !
 ! D65   D(11,12,30,31)         -1.179          estimate D2E/DX2                !
 ! D66   D(11,12,30,50)       -179.921          estimate D2E/DX2                !
 ! D67   D(13,12,30,31)        177.4947         estimate D2E/DX2                !
 ! D68   D(13,12,30,50)         -1.2474         estimate D2E/DX2                !
 ! D69   D(12,13,14,15)         -0.4858         estimate D2E/DX2                !
 ! D70   D(12,13,14,18)        178.7308         estimate D2E/DX2                !
 ! D71   D(29,13,14,15)       -179.7247         estimate D2E/DX2                !
 ! D72   D(29,13,14,18)         -0.5082         estimate D2E/DX2                !
 ! D73   D(12,13,29,28)       -178.8971         estimate D2E/DX2                !
 ! D74   D(12,13,29,49)          2.1168         estimate D2E/DX2                !
 ! D75   D(14,13,29,28)          0.3503         estimate D2E/DX2                !
 ! D76   D(14,13,29,49)       -178.6359         estimate D2E/DX2                !
 ! D77   D(13,14,15,16)        179.6433         estimate D2E/DX2                !
 ! D78   D(18,14,15,16)          0.3715         estimate D2E/DX2                !
 ! D79   D(13,14,18,17)       -179.7958         estimate D2E/DX2                !
 ! D80   D(13,14,18,19)          0.7238         estimate D2E/DX2                !
 ! D81   D(15,14,18,17)         -0.4898         estimate D2E/DX2                !
 ! D82   D(15,14,18,19)       -179.9703         estimate D2E/DX2                !
 ! D83   D(14,15,16,17)         -0.1578         estimate D2E/DX2                !
 ! D84   D(15,16,17,18)         -0.1129         estimate D2E/DX2                !
 ! D85   D(16,17,18,14)          0.3408         estimate D2E/DX2                !
 ! D86   D(16,17,18,19)        179.7938         estimate D2E/DX2                !
 ! D87   D(14,18,19,20)        178.9023         estimate D2E/DX2                !
 ! D88   D(14,18,19,28)         -0.7141         estimate D2E/DX2                !
 ! D89   D(17,18,19,20)         -0.5115         estimate D2E/DX2                !
 ! D90   D(17,18,19,28)        179.8721         estimate D2E/DX2                !
 ! D91   D(18,19,20,21)       -140.9911         estimate D2E/DX2                !
 ! D92   D(18,19,20,27)         40.1319         estimate D2E/DX2                !
 ! D93   D(28,19,20,21)         38.6026         estimate D2E/DX2                !
 ! D94   D(28,19,20,27)       -140.2744         estimate D2E/DX2                !
 ! D95   D(18,19,28,29)          0.5624         estimate D2E/DX2                !
 ! D96   D(18,19,28,48)       -178.6012         estimate D2E/DX2                !
 ! D97   D(20,19,28,29)       -179.0583         estimate D2E/DX2                !
 ! D98   D(20,19,28,48)          1.778          estimate D2E/DX2                !
 ! D99   D(19,20,21,22)       -178.1223         estimate D2E/DX2                !
 ! D100  D(19,20,21,44)          3.3949         estimate D2E/DX2                !
 ! D101  D(27,20,21,22)          0.7899         estimate D2E/DX2                !
 ! D102  D(27,20,21,44)       -177.6928         estimate D2E/DX2                !
 ! D103  D(19,20,27,26)        178.0163         estimate D2E/DX2                !
 ! D104  D(19,20,27,47)         -1.911          estimate D2E/DX2                !
 ! D105  D(21,20,27,26)         -0.8765         estimate D2E/DX2                !
 ! D106  D(21,20,27,47)        179.1962         estimate D2E/DX2                !
 ! D107  D(20,21,22,23)         -0.2152         estimate D2E/DX2                !
 ! D108  D(20,21,22,45)       -179.5751         estimate D2E/DX2                !
 ! D109  D(44,21,22,23)        178.2717         estimate D2E/DX2                !
 ! D110  D(44,21,22,45)         -1.0882         estimate D2E/DX2                !
 ! D111  D(21,22,23,24)        179.996          estimate D2E/DX2                !
 ! D112  D(21,22,23,26)         -0.2885         estimate D2E/DX2                !
 ! D113  D(45,22,23,24)         -0.6394         estimate D2E/DX2                !
 ! D114  D(45,22,23,26)        179.0762         estimate D2E/DX2                !
 ! D115  D(22,23,26,27)          0.2014         estimate D2E/DX2                !
 ! D116  D(22,23,26,46)       -179.8743         estimate D2E/DX2                !
 ! D117  D(24,23,26,27)        179.9167         estimate D2E/DX2                !
 ! D118  D(24,23,26,46)         -0.159          estimate D2E/DX2                !
 ! D119  D(23,26,27,20)          0.3911         estimate D2E/DX2                !
 ! D120  D(23,26,27,47)       -179.6816         estimate D2E/DX2                !
 ! D121  D(46,26,27,20)       -179.5327         estimate D2E/DX2                !
 ! D122  D(46,26,27,47)          0.3947         estimate D2E/DX2                !
 ! D123  D(19,28,29,13)         -0.4099         estimate D2E/DX2                !
 ! D124  D(19,28,29,49)        178.5838         estimate D2E/DX2                !
 ! D125  D(48,28,29,13)        178.761          estimate D2E/DX2                !
 ! D126  D(48,28,29,49)         -2.2452         estimate D2E/DX2                !
 ! D127  D(12,30,31,9)           1.3192         estimate D2E/DX2                !
 ! D128  D(12,30,31,51)       -178.6489         estimate D2E/DX2                !
 ! D129  D(50,30,31,9)        -179.9326         estimate D2E/DX2                !
 ! D130  D(50,30,31,51)          0.0993         estimate D2E/DX2                !
 ! D131  D(1,32,33,34)           0.8604         estimate D2E/DX2                !
 ! D132  D(1,32,33,53)        -179.9377         estimate D2E/DX2                !
 ! D133  D(52,32,33,34)       -179.3556         estimate D2E/DX2                !
 ! D134  D(52,32,33,53)         -0.1537         estimate D2E/DX2                !
 ! D135  D(32,33,34,35)         -0.5015         estimate D2E/DX2                !
 ! D136  D(32,33,34,54)        179.5497         estimate D2E/DX2                !
 ! D137  D(53,33,34,35)       -179.6973         estimate D2E/DX2                !
 ! D138  D(53,33,34,54)          0.3539         estimate D2E/DX2                !
 ! D139  D(33,34,35,36)         -0.4101         estimate D2E/DX2                !
 ! D140  D(33,34,35,55)       -179.5384         estimate D2E/DX2                !
 ! D141  D(54,34,35,36)        179.5388         estimate D2E/DX2                !
 ! D142  D(54,34,35,55)          0.4104         estimate D2E/DX2                !
 ! D143  D(34,35,36,1)           0.9619         estimate D2E/DX2                !
 ! D144  D(34,35,36,56)       -179.2074         estimate D2E/DX2                !
 ! D145  D(55,35,36,1)        -179.9029         estimate D2E/DX2                !
 ! D146  D(55,35,36,56)         -0.0722         estimate D2E/DX2                !
 --------------------------------------------------------------------------------
 Trust Radius=3.00D-01 FncErr=1.00D-07 GrdErr=1.00D-06 EigMax=2.50D+02 EigMin=1.00D-04
 Number of steps in this run=    315 maximum allowed number of steps=    336.
 GradGradGradGradGradGradGradGradGradGradGradGradGradGradGradGradGradGrad

 Stoichiometry    C31H20N4S
 Framework group  C1[X(C31H20N4S)]
 Deg. of freedom   162
 Full point group                 C1      NOp   1
 Largest Abelian subgroup         C1      NOp   1
 Largest concise Abelian subgroup C1      NOp   1
                         Standard orientation:                         
 ---------------------------------------------------------------------
 Center     Atomic      Atomic             Coordinates (Angstroms)
 Number     Number       Type             X           Y           Z
 ---------------------------------------------------------------------
      1          6           0       -5.311482    1.005415   -0.061501
      2          7           0       -4.584210   -0.218690   -0.003497
      3          6           0       -5.295627   -1.451187    0.062854
      4          6           0       -4.888562   -2.552722   -0.712502
      5          6           0       -5.588790   -3.760729   -0.640175
      6          6           0       -6.712507   -3.883444    0.187387
      7          6           0       -7.125583   -2.783962    0.950723
      8          6           0       -6.420335   -1.577692    0.898637
      9          6           0       -3.169255   -0.210449   -0.002544
     10          6           0       -2.443754   -1.149693    0.757141
     11          6           0       -1.049781   -1.139490    0.748197
     12          6           0       -0.324358   -0.189745    0.001158
     13          6           0        1.156277   -0.225277   -0.012204
     14          6           0        1.965648    0.966323   -0.013772
     15          7           0        1.497397    2.230474   -0.012918
     16         16           0        2.807860    3.211588   -0.005658
     17          7           0        4.014258    2.102569    0.001165
     18          6           0        3.418265    0.893443    0.000466
     19          6           0        4.097894   -0.373872    0.001077
     20          6           0        5.577579   -0.490239   -0.008557
     21          6           0        6.198591   -1.494992   -0.777705
     22          6           0        7.584009   -1.652788   -0.775699
     23          6           0        8.383668   -0.794654    0.002067
     24          6           0        9.813288   -0.950468    0.009991
     25          7           0       10.977827   -1.079483    0.017281
     26          6           0        7.777495    0.220000    0.766872
     27          6           0        6.391224    0.369708    0.755806
     28          6           0        3.281091   -1.491594    0.002942
     29          6           0        1.858134   -1.420111   -0.007488
     30          6           0       -1.058090    0.757800   -0.739882
     31          6           0       -2.452131    0.741518   -0.754209
     32          6           0       -6.444309    1.117975   -0.888159
     33          6           0       -7.166293    2.314581   -0.932386
     34          6           0       -6.761686    3.418228   -0.170539
     35          6           0       -5.629486    3.309474    0.647258
     36          6           0       -4.912496    2.110895    0.712211
     37          1           0       -4.021406   -2.454763   -1.370047
     38          1           0       -5.260565   -4.607799   -1.248473
     39          1           0       -7.262031   -4.826597    0.235523
     40          1           0       -7.998120   -2.866687    1.604181
     41          1           0       -6.738464   -0.724415    1.502391
     42          1           0       -2.979909   -1.881450    1.365359
     43          1           0       -0.512516   -1.860243    1.371012
     44          1           0        5.587522   -2.147288   -1.406464
     45          1           0        8.053860   -2.430529   -1.381169
     46          1           0        8.398657    0.886723    1.368449
     47          1           0        5.930956    1.161869    1.347339
     48          1           0        3.743310   -2.482185    0.026868
     49          1           0        1.298354   -2.358556   -0.028905
     50          1           0       -0.529447    1.507223   -1.330887
     51          1           0       -2.996395    1.473749   -1.354609
     52          1           0       -6.755522    0.261628   -1.491205
     53          1           0       -8.045027    2.386684   -1.578768
     54          1           0       -7.323854    4.354175   -0.212985
     55          1           0       -5.306495    4.160258    1.253074
     56          1           0       -4.037403    2.025188    1.360837
 ---------------------------------------------------------------------
 Rotational constants (GHZ):           0.2568638           0.0355520           0.0318214
 Standard basis: 6-31+G(d,p) (6D, 7F)
 There are   788 symmetry adapted cartesian basis functions of A   symmetry.
 There are   788 symmetry adapted basis functions of A   symmetry.
   788 basis functions,  1316 primitive gaussians,   788 cartesian basis functions
   125 alpha electrons      125 beta electrons
       nuclear repulsion energy      3356.9331318635 Hartrees.
 NAtoms=   56 NActive=   56 NUniq=   56 SFac= 1.00D+00 NAtFMM=   60 NAOKFM=F Big=F
 Integral buffers will be    131072 words long.
 Raffenetti 1 integral format.
 Two-electron integral symmetry is turned on.
 One-electron integrals computed using PRISM.
 NBasis=   788 RedAO= T EigKep=  1.19D-06  NBF=   788
 NBsUse=   780 1.00D-06 EigRej=  9.86D-07 NBFU=   780
 ExpMin= 4.05D-02 ExpMax= 2.19D+04 ExpMxC= 3.30D+03 IAcc=3 IRadAn=         5 AccDes= 0.00D+00
 Harris functional with IExCor=33909 and IRadAn=       5 diagonalized for initial guess.
 HarFok:  IExCor=33909 AccDes= 0.00D+00 IRadAn=         5 IDoV= 1 UseB2=F ITyADJ=14
 ICtDFT=  3500011 ScaDFX=  1.000000  1.000000  1.000000  1.000000
 FoFCou: FMM=F IPFlag=           0 FMFlag=      100000 FMFlg1=           0
         NFxFlg=           0 DoJE=T BraDBF=F KetDBF=T FulRan=T
         wScrn=  0.000000 ICntrl=       500 IOpCl=  0 I1Cent=   200000004 NGrid=           0
         NMat0=    1 NMatS0=      1 NMatT0=    0 NMatD0=    1 NMtDS0=    0 NMtDT0=    0
 Petite list used in FoFCou.
 Requested convergence on RMS density matrix=1.00D-08 within 128 cycles.
 Requested convergence on MAX density matrix=1.00D-06.
 Requested convergence on             energy=1.00D-06.
 No special actions if energy rises.
 SCF Done:  E(RLC-wHPBE) =  -1809.11329117     A.U. after   18 cycles
            NFock= 18  Conv=0.70D-08     -V/T= 2.0089
 DoSCS=F DFT=T ScalE2(SS,OS)=  1.000000  1.000000
 ExpMin= 4.05D-02 ExpMax= 2.19D+04 ExpMxC= 3.30D+03 IAcc=3 IRadAn=         5 AccDes= 0.00D+00
 HarFok:  IExCor=  205 AccDes= 0.00D+00 IRadAn=         5 IDoV=-2 UseB2=F ITyADJ=14
 ICtDFT= 12500011 ScaDFX=  1.000000  1.000000  1.000000  1.000000
 GSVD:  LWork=       -1920 too small for GESVD, short by        8600 words or        8600 for optimal perf.
 Range of M.O.s used for correlation:    41   780
 NBasis=   788 NAE=   125 NBE=   125 NFC=    40 NFV=     0
 NROrb=    740 NOA=    85 NOB=    85 NVA=   655 NVB=   655

 **** Warning!!: The largest alpha MO coefficient is  0.16849751D+03

 Orbital symmetries:
       Occupied  (A) (A) (A) (A) (A) (A) (A) (A) (A) (A) (A) (A)
                 (A) (A) (A) (A) (A) (A) (A) (A) (A) (A) (A) (A)
                 (A) (A) (A) (A) (A) (A) (A) (A) (A) (A) (A) (A)
                 (A) (A) (A) (A) (A) (A) (A) (A) (A) (A) (A) (A)
                 (A) (A) (A) (A) (A) (A) (A) (A) (A) (A) (A) (A)
                 (A) (A) (A) (A) (A) (A) (A) (A) (A) (A) (A) (A)
                 (A) (A) (A) (A) (A) (A) (A) (A) (A) (A) (A) (A)
                 (A) (A) (A) (A) (A) (A) (A) (A) (A) (A) (A) (A)
                 (A) (A) (A) (A) (A) (A) (A) (A) (A) (A) (A) (A)
                 (A) (A) (A) (A) (A) (A) (A) (A) (A) (A) (A) (A)
                 (A) (A) (A) (A) (A)
       Virtual   (A) (A) (A) (A) (A) (A) (A) (A) (A) (A) (A) (A)
                 (A) (A) (A) (A) (A) (A) (A) (A) (A) (A) (A) (A)
                 (A) (A) (A) (A) (A) (A) (A) (A) (A) (A) (A) (A)
                 (A) (A) (A) (A) (A) (A) (A) (A) (A) (A) (A) (A)
                 (A) (A) (A) (A) (A) (A) (A) (A) (A) (A) (A) (A)
                 (A) (A) (A) (A) (A) (A) (A) (A) (A) (A) (A) (A)
                 (A) (A) (A) (A) (A) (A) (A) (A) (A) (A) (A) (A)
                 (A) (A) (A) (A) (A) (A) (A) (A) (A) (A) (A) (A)
                 (A) (A) (A) (A) (A) (A) (A) (A) (A) (A) (A) (A)
                 (A) (A) (A) (A) (A) (A) (A) (A) (A) (A) (A) (A)
                 (A) (A) (A) (A) (A) (A) (A) (A) (A) (A) (A) (A)
                 (A) (A) (A) (A) (A) (A) (A) (A) (A) (A) (A) (A)
                 (A) (A) (A) (A) (A) (A) (A) (A) (A) (A) (A) (A)
                 (A) (A) (A) (A) (A) (A) (A) (A) (A) (A) (A) (A)
                 (A) (A) (A) (A) (A) (A) (A) (A) (A) (A) (A) (A)
                 (A) (A) (A) (A) (A) (A) (A) (A) (A) (A) (A) (A)
                 (A) (A) (A) (A) (A) (A) (A) (A) (A) (A) (A) (A)
                 (A) (A) (A) (A) (A) (A) (A) (A) (A) (A) (A) (A)
                 (A) (A) (A) (A) (A) (A) (A) (A) (A) (A) (A) (A)
                 (A) (A) (A) (A) (A) (A) (A) (A) (A) (A) (A) (A)
                 (A) (A) (A) (A) (A) (A) (A) (A) (A) (A) (A) (A)
                 (A) (A) (A) (A) (A) (A) (A) (A) (A) (A) (A) (A)
                 (A) (A) (A) (A) (A) (A) (A) (A) (A) (A) (A) (A)
                 (A) (A) (A) (A) (A) (A) (A) (A) (A) (A) (A) (A)
                 (A) (A) (A) (A) (A) (A) (A) (A) (A) (A) (A) (A)
                 (A) (A) (A) (A) (A) (A) (A) (A) (A) (A) (A) (A)
                 (A) (A) (A) (A) (A) (A) (A) (A) (A) (A) (A) (A)
                 (A) (A) (A) (A) (A) (A) (A) (A) (A) (A) (A) (A)
                 (A) (A) (A) (A) (A) (A) (A) (A) (A) (A) (A) (A)
                 (A) (A) (A) (A) (A) (A) (A) (A) (A) (A) (A) (A)
                 (A) (A) (A) (A) (A) (A) (A) (A) (A) (A) (A) (A)
                 (A) (A) (A) (A) (A) (A) (A) (A) (A) (A) (A) (A)
                 (A) (A) (A) (A) (A) (A) (A) (A) (A) (A) (A) (A)
                 (A) (A) (A) (A) (A) (A) (A) (A) (A) (A) (A) (A)
                 (A) (A) (A) (A) (A) (A) (A) (A) (A) (A) (A) (A)
                 (A) (A) (A) (A) (A) (A) (A) (A) (A) (A) (A) (A)
                 (A) (A) (A) (A) (A) (A) (A) (A) (A) (A) (A) (A)
                 (A) (A) (A) (A) (A) (A) (A) (A) (A) (A) (A) (A)
                 (A) (A) (A) (A) (A) (A) (A) (A) (A) (A) (A) (A)
                 (A) (A) (A) (A) (A) (A) (A) (A) (A) (A) (A) (A)
                 (A) (A) (A) (A) (A) (A) (A) (A) (A) (A) (A) (A)
                 (A) (A) (A) (A) (A) (A) (A) (A) (A) (A) (A) (A)
                 (A) (A) (A) (A) (A) (A) (A) (A) (A) (A) (A) (A)
                 (A) (A) (A) (A) (A) (A) (A) (A) (A) (A) (A) (A)
                 (A) (A) (A) (A) (A) (A) (A) (A) (A) (A) (A) (A)
                 (A) (A) (A) (A) (A) (A) (A) (A) (A) (A) (A) (A)
                 (A) (A) (A) (A) (A) (A) (A) (A) (A) (A) (A) (A)
                 (A) (A) (A) (A) (A) (A) (A) (A) (A) (A) (A) (A)
                 (A) (A) (A) (A) (A) (A) (A) (A) (A) (A) (A) (A)
                 (A) (A) (A) (A) (A) (A) (A) (A) (A) (A) (A) (A)
                 (A) (A) (A) (A) (A) (A) (A) (A) (A) (A) (A) (A)
                 (A) (A) (A) (A) (A) (A) (A) (A) (A) (A) (A) (A)
                 (A) (A) (A) (A) (A) (A) (A) (A) (A) (A) (A) (A)
                 (A) (A) (A) (A) (A) (A) (A) (A) (A) (A) (A) (A)
                 (A) (A) (A) (A) (A) (A) (A)
    12 initial guesses have been made.
 Convergence on wavefunction:    0.000001000000000
 Iteration     1 Dimension    12 NMult     0 NNew     12
 CISAX will form    12 AO SS matrices at one time.
 New state      2 was old state      7
 Iteration     2 Dimension    18 NMult    12 NNew      6
 New state      2 was old state      3
 New state      3 was old state      2
 Iteration     3 Dimension    24 NMult    18 NNew      6
 Iteration     4 Dimension    30 NMult    24 NNew      6
 Iteration     5 Dimension    36 NMult    30 NNew      6
 Iteration     6 Dimension    42 NMult    36 NNew      6
 Iteration     7 Dimension    48 NMult    42 NNew      6
 Iteration     8 Dimension    54 NMult    48 NNew      6
 Iteration     9 Dimension    60 NMult    54 NNew      6
 Iteration    10 Dimension    66 NMult    60 NNew      6
 Iteration    11 Dimension    72 NMult    66 NNew      6
 Iteration    12 Dimension    78 NMult    72 NNew      6
 Iteration    13 Dimension    84 NMult    78 NNew      6
 Iteration    14 Dimension    88 NMult    84 NNew      4
 Iteration    15 Dimension    92 NMult    88 NNew      4
 Iteration    16 Dimension    96 NMult    92 NNew      4
 ***********************************************************************
 Excited states from <AA,BB:AA,BB> singles matrix:
 ***********************************************************************
 
 Ground to excited state transition densities written to RWF  633
 Ground to excited state transition electric dipole moments (Au):
       state          X           Y           Z        Dip. S.      Osc.
         1         2.7513      0.0207     -0.0143      7.5705      0.5133
         2        -0.0483     -0.1990     -0.0027      0.0419      0.0037
         3         0.0784      0.1450      0.3558      0.1538      0.0142
 Ground to excited state transition velocity dipole moments (Au):
       state          X           Y           Z        Dip. S.      Osc.
         1        -0.2768     -0.0026      0.0018      0.0766      0.5021
         2         0.0029      0.0256      0.0007      0.0007      0.0033
         3        -0.0108     -0.0198     -0.0548      0.0035      0.0169
 Ground to excited state transition magnetic dipole moments (Au):
       state          X           Y           Z
         1        -0.0251     -0.0378     -0.2659
         2         0.0713      0.0476     -0.0140
         3         0.0314     -0.4547      1.4487
 Ground to excited state transition velocity quadrupole moments (Au):
       state          XX          YY          ZZ          XY          XZ          YZ
         1        -0.7530      0.1822      0.0204      0.1557      0.0053     -0.0286
         2        -3.1113     -0.1555     -0.0049      0.1321      0.0104     -0.0550
         3        -0.0197      0.0389     -0.0019      0.2470      0.4887      0.0281
 <0|del|b> * <b|rxdel|0> + <0|del|b> * <b|delr+rdel|0>
 Rotatory Strengths (R) in cgs (10**-40 erg-esu-cm/Gauss)
       state          XX          YY          ZZ    R(velocity)    E-M Angle
         1        -0.3112     48.9382     -3.1175     15.1698       84.97
         2         2.7678     -0.1515      4.9528      2.5231       50.75
         3      -189.5008   -169.7193     -1.8112   -120.3437      141.81
 1/2[<0|r|b>*<b|rxdel|0> + (<0|rxdel|b>*<b|r|0>)*]
 Rotatory Strengths (R) in cgs (10**-40 erg-esu-cm/Gauss)
       state          XX          YY          ZZ     R(length)
         1        48.7526      0.5517     -2.6813     15.5410
         2         2.4345      6.7060     -0.0263      3.0380
         3        -1.7400     46.6343   -364.4821   -106.5293
  1/2[<0|del|b>*<b|r|0> + (<0|r|b>*<b|del|0>)*] (Au)
       state          X           Y           Z        Dip. S.   Osc.(frdel)
         1        -0.7614     -0.0001     -0.0000      0.7615      0.5077
         2        -0.0001     -0.0051     -0.0000      0.0052      0.0035
         3        -0.0008     -0.0029     -0.0195      0.0232      0.0155

 Excitation energies and oscillator strengths:
 
 Excited State   1:      Singlet-A      2.7677 eV  447.96 nm  f=0.5133  <S**2>=0.000
     124 ->126         0.27659
     125 ->126         0.63083
 This state for optimization and/or second-order correction.
 Total Energy, E(TD-HF/TD-DFT) =  -1809.01157877    
 Copying the excited state density for this state as the 1-particle RhoCI density.
 
 Excited State   2:      Singlet-A      3.6073 eV  343.70 nm  f=0.0037  <S**2>=0.000
     116 ->126         0.11140
     124 ->126         0.58027
     124 ->127         0.11024
     125 ->126        -0.22321
     125 ->127         0.10243
     125 ->128         0.21455
 
 Excited State   3:      Singlet-A      3.7675 eV  329.09 nm  f=0.0142  <S**2>=0.000
     125 ->129         0.61945
     125 ->130         0.25633
 SavETr:  write IOETrn=   770 NScale= 10 NData=  16 NLR=1 NState=    3 LETran=      64.
          IDoAtm=11111111111111111111111111111111111111111111111111
          IDoAtm=111111
          Differentiating once with respect to electric field.
                with respect to dipole field.
          Differentiating once with respect to nuclear coordinates.
          There are     1 degrees of freedom in the 1st order CPHF.  IDoFFX=0 NUNeed=     1.
 LinEq1:  Iter=  0 NonCon=     1 RMS=3.22D-03 Max=3.31D-01 NDo=     1
 AX will form     1 AO Fock derivatives at one time.
 LinEq1:  Iter=  1 NonCon=     1 RMS=1.84D-03 Max=2.07D-01 NDo=     1
 LinEq1:  Iter=  2 NonCon=     1 RMS=1.21D-03 Max=1.61D-01 NDo=     1
 LinEq1:  Iter=  3 NonCon=     1 RMS=5.70D-04 Max=4.05D-02 NDo=     1
 LinEq1:  Iter=  4 NonCon=     1 RMS=3.72D-04 Max=2.30D-02 NDo=     1
 LinEq1:  Iter=  5 NonCon=     1 RMS=2.24D-04 Max=1.51D-02 NDo=     1
 LinEq1:  Iter=  6 NonCon=     1 RMS=1.95D-04 Max=2.48D-02 NDo=     1
 LinEq1:  Iter=  7 NonCon=     1 RMS=1.36D-04 Max=7.29D-03 NDo=     1
 LinEq1:  Iter=  8 NonCon=     1 RMS=8.81D-05 Max=7.84D-03 NDo=     1
 LinEq1:  Iter=  9 NonCon=     1 RMS=4.58D-05 Max=2.76D-03 NDo=     1
 LinEq1:  Iter= 10 NonCon=     1 RMS=2.84D-05 Max=1.89D-03 NDo=     1
 LinEq1:  Iter= 11 NonCon=     1 RMS=1.96D-05 Max=1.56D-03 NDo=     1
 LinEq1:  Iter= 12 NonCon=     1 RMS=1.56D-05 Max=8.93D-04 NDo=     1
 LinEq1:  Iter= 13 NonCon=     1 RMS=9.09D-06 Max=5.42D-04 NDo=     1
 LinEq1:  Iter= 14 NonCon=     1 RMS=4.93D-06 Max=3.27D-04 NDo=     1
 LinEq1:  Iter= 15 NonCon=     1 RMS=2.95D-06 Max=2.48D-04 NDo=     1
 LinEq1:  Iter= 16 NonCon=     1 RMS=1.43D-06 Max=6.68D-05 NDo=     1
 LinEq1:  Iter= 17 NonCon=     1 RMS=8.63D-07 Max=7.21D-05 NDo=     1
 LinEq1:  Iter= 18 NonCon=     1 RMS=3.76D-07 Max=2.51D-05 NDo=     1
 LinEq1:  Iter= 19 NonCon=     1 RMS=2.15D-07 Max=1.08D-05 NDo=     1
 LinEq1:  Iter= 20 NonCon=     1 RMS=1.26D-07 Max=8.18D-06 NDo=     1
 LinEq1:  Iter= 21 NonCon=     1 RMS=5.62D-08 Max=2.71D-06 NDo=     1
 LinEq1:  Iter= 22 NonCon=     1 RMS=3.39D-08 Max=1.52D-06 NDo=     1
 LinEq1:  Iter= 23 NonCon=     1 RMS=1.65D-08 Max=6.47D-07 NDo=     1
 LinEq1:  Iter= 24 NonCon=     1 RMS=8.22D-09 Max=3.64D-07 NDo=     1
 LinEq1:  Iter= 25 NonCon=     1 RMS=4.47D-09 Max=3.15D-07 NDo=     1
 LinEq1:  Iter= 26 NonCon=     1 RMS=1.89D-09 Max=1.32D-07 NDo=     1
 LinEq1:  Iter= 27 NonCon=     1 RMS=1.13D-09 Max=6.94D-08 NDo=     1
 LinEq1:  Iter= 28 NonCon=     1 RMS=5.26D-10 Max=3.31D-08 NDo=     1
 LinEq1:  Iter= 29 NonCon=     1 RMS=2.23D-10 Max=1.30D-08 NDo=     1
 LinEq1:  Iter= 30 NonCon=     1 RMS=1.30D-10 Max=7.09D-09 NDo=     1
 LinEq1:  Iter= 31 NonCon=     1 RMS=5.25D-11 Max=3.56D-09 NDo=     1
 LinEq1:  Iter= 32 NonCon=     1 RMS=3.71D-11 Max=1.67D-09 NDo=     1
 LinEq1:  Iter= 33 NonCon=     0 RMS=2.64D-11 Max=8.45D-10 NDo=     1
 Linear equations converged to 1.000D-10 1.000D-09 after    33 iterations.
 End of Minotr F.D. properties file   721 does not exist.
 End of Minotr F.D. properties file   722 does not exist.
 End of Minotr F.D. properties file   788 does not exist.

 **********************************************************************

            Population analysis using the SCF Density.

 **********************************************************************

 Orbital symmetries:
       Occupied  (A) (A) (A) (A) (A) (A) (A) (A) (A) (A) (A) (A)
                 (A) (A) (A) (A) (A) (A) (A) (A) (A) (A) (A) (A)
                 (A) (A) (A) (A) (A) (A) (A) (A) (A) (A) (A) (A)
                 (A) (A) (A) (A) (A) (A) (A) (A) (A) (A) (A) (A)
                 (A) (A) (A) (A) (A) (A) (A) (A) (A) (A) (A) (A)
                 (A) (A) (A) (A) (A) (A) (A) (A) (A) (A) (A) (A)
                 (A) (A) (A) (A) (A) (A) (A) (A) (A) (A) (A) (A)
                 (A) (A) (A) (A) (A) (A) (A) (A) (A) (A) (A) (A)
                 (A) (A) (A) (A) (A) (A) (A) (A) (A) (A) (A) (A)
                 (A) (A) (A) (A) (A) (A) (A) (A) (A) (A) (A) (A)
                 (A) (A) (A) (A) (A)
       Virtual   (A) (A) (A) (A) (A) (A) (A) (A) (A) (A) (A) (A)
                 (A) (A) (A) (A) (A) (A) (A) (A) (A) (A) (A) (A)
                 (A) (A) (A) (A) (A) (A) (A) (A) (A) (A) (A) (A)
                 (A) (A) (A) (A) (A) (A) (A) (A) (A) (A) (A) (A)
                 (A) (A) (A) (A) (A) (A) (A) (A) (A) (A) (A) (A)
                 (A) (A) (A) (A) (A) (A) (A) (A) (A) (A) (A) (A)
                 (A) (A) (A) (A) (A) (A) (A) (A) (A) (A) (A) (A)
                 (A) (A) (A) (A) (A) (A) (A) (A) (A) (A) (A) (A)
                 (A) (A) (A) (A) (A) (A) (A) (A) (A) (A) (A) (A)
                 (A) (A) (A) (A) (A) (A) (A) (A) (A) (A) (A) (A)
                 (A) (A) (A) (A) (A) (A) (A) (A) (A) (A) (A) (A)
                 (A) (A) (A) (A) (A) (A) (A) (A) (A) (A) (A) (A)
                 (A) (A) (A) (A) (A) (A) (A) (A) (A) (A) (A) (A)
                 (A) (A) (A) (A) (A) (A) (A) (A) (A) (A) (A) (A)
                 (A) (A) (A) (A) (A) (A) (A) (A) (A) (A) (A) (A)
                 (A) (A) (A) (A) (A) (A) (A) (A) (A) (A) (A) (A)
                 (A) (A) (A) (A) (A) (A) (A) (A) (A) (A) (A) (A)
                 (A) (A) (A) (A) (A) (A) (A) (A) (A) (A) (A) (A)
                 (A) (A) (A) (A) (A) (A) (A) (A) (A) (A) (A) (A)
                 (A) (A) (A) (A) (A) (A) (A) (A) (A) (A) (A) (A)
                 (A) (A) (A) (A) (A) (A) (A) (A) (A) (A) (A) (A)
                 (A) (A) (A) (A) (A) (A) (A) (A) (A) (A) (A) (A)
                 (A) (A) (A) (A) (A) (A) (A) (A) (A) (A) (A) (A)
                 (A) (A) (A) (A) (A) (A) (A) (A) (A) (A) (A) (A)
                 (A) (A) (A) (A) (A) (A) (A) (A) (A) (A) (A) (A)
                 (A) (A) (A) (A) (A) (A) (A) (A) (A) (A) (A) (A)
                 (A) (A) (A) (A) (A) (A) (A) (A) (A) (A) (A) (A)
                 (A) (A) (A) (A) (A) (A) (A) (A) (A) (A) (A) (A)
                 (A) (A) (A) (A) (A) (A) (A) (A) (A) (A) (A) (A)
                 (A) (A) (A) (A) (A) (A) (A) (A) (A) (A) (A) (A)
                 (A) (A) (A) (A) (A) (A) (A) (A) (A) (A) (A) (A)
                 (A) (A) (A) (A) (A) (A) (A) (A) (A) (A) (A) (A)
                 (A) (A) (A) (A) (A) (A) (A) (A) (A) (A) (A) (A)
                 (A) (A) (A) (A) (A) (A) (A) (A) (A) (A) (A) (A)
                 (A) (A) (A) (A) (A) (A) (A) (A) (A) (A) (A) (A)
                 (A) (A) (A) (A) (A) (A) (A) (A) (A) (A) (A) (A)
                 (A) (A) (A) (A) (A) (A) (A) (A) (A) (A) (A) (A)
                 (A) (A) (A) (A) (A) (A) (A) (A) (A) (A) (A) (A)
                 (A) (A) (A) (A) (A) (A) (A) (A) (A) (A) (A) (A)
                 (A) (A) (A) (A) (A) (A) (A) (A) (A) (A) (A) (A)
                 (A) (A) (A) (A) (A) (A) (A) (A) (A) (A) (A) (A)
                 (A) (A) (A) (A) (A) (A) (A) (A) (A) (A) (A) (A)
                 (A) (A) (A) (A) (A) (A) (A) (A) (A) (A) (A) (A)
                 (A) (A) (A) (A) (A) (A) (A) (A) (A) (A) (A) (A)
                 (A) (A) (A) (A) (A) (A) (A) (A) (A) (A) (A) (A)
                 (A) (A) (A) (A) (A) (A) (A) (A) (A) (A) (A) (A)
                 (A) (A) (A) (A) (A) (A) (A) (A) (A) (A) (A) (A)
                 (A) (A) (A) (A) (A) (A) (A) (A) (A) (A) (A) (A)
                 (A) (A) (A) (A) (A) (A) (A) (A) (A) (A) (A) (A)
                 (A) (A) (A) (A) (A) (A) (A) (A) (A) (A) (A) (A)
                 (A) (A) (A) (A) (A) (A) (A) (A) (A) (A) (A) (A)
                 (A) (A) (A) (A) (A) (A) (A) (A) (A) (A) (A) (A)
                 (A) (A) (A) (A) (A) (A) (A) (A) (A) (A) (A) (A)
                 (A) (A) (A) (A) (A) (A) (A) (A) (A) (A) (A) (A)
                 (A) (A) (A) (A) (A) (A) (A)
 The electronic state is 1-A.
 Alpha  occ. eigenvalues --  -88.28113 -14.15673 -14.15656 -14.15229 -14.11190
 Alpha  occ. eigenvalues --  -10.07297 -10.07191 -10.06049 -10.05909 -10.05652
 Alpha  occ. eigenvalues --  -10.05585 -10.04761 -10.04756 -10.04696 -10.04641
 Alpha  occ. eigenvalues --  -10.03936 -10.03785 -10.03700 -10.03380 -10.03267
 Alpha  occ. eigenvalues --  -10.03023 -10.02725 -10.02080 -10.01793 -10.01765
 Alpha  occ. eigenvalues --  -10.01734 -10.01685 -10.01680 -10.01541 -10.01533
 Alpha  occ. eigenvalues --  -10.01485 -10.01424 -10.01419 -10.01388 -10.01377
 Alpha  occ. eigenvalues --  -10.01285  -7.87435  -5.89696  -5.88972  -5.88737
 Alpha  occ. eigenvalues --   -1.05356  -0.99812  -0.93304  -0.92947  -0.91567
 Alpha  occ. eigenvalues --   -0.90205  -0.88999  -0.88923  -0.87260  -0.84075
 Alpha  occ. eigenvalues --   -0.81173  -0.80927  -0.80244  -0.79849  -0.78785
 Alpha  occ. eigenvalues --   -0.78450  -0.78298  -0.77717  -0.74865  -0.71123
 Alpha  occ. eigenvalues --   -0.68991  -0.68392  -0.67554  -0.67533  -0.66309
 Alpha  occ. eigenvalues --   -0.65113  -0.64978  -0.64511  -0.63045  -0.61737
 Alpha  occ. eigenvalues --   -0.60983  -0.58736  -0.58713  -0.57177  -0.56790
 Alpha  occ. eigenvalues --   -0.55131  -0.54463  -0.53712  -0.53317  -0.52828
 Alpha  occ. eigenvalues --   -0.51964  -0.51607  -0.50967  -0.50302  -0.50246
 Alpha  occ. eigenvalues --   -0.49483  -0.49012  -0.48946  -0.48332  -0.47603
 Alpha  occ. eigenvalues --   -0.47401  -0.47299  -0.47242  -0.46602  -0.44893
 Alpha  occ. eigenvalues --   -0.44358  -0.43976  -0.43856  -0.43704  -0.43446
 Alpha  occ. eigenvalues --   -0.43399  -0.43017  -0.41957  -0.41604  -0.41251
 Alpha  occ. eigenvalues --   -0.41030  -0.40535  -0.40462  -0.39823  -0.39630
 Alpha  occ. eigenvalues --   -0.39502  -0.38724  -0.37926  -0.37083  -0.36176
 Alpha  occ. eigenvalues --   -0.34330  -0.33821  -0.33550  -0.32938  -0.32904
 Alpha  occ. eigenvalues --   -0.32763  -0.31752  -0.31726  -0.29217  -0.24740
 Alpha virt. eigenvalues --   -0.05972  -0.01799   0.00755   0.01188   0.01279
 Alpha virt. eigenvalues --    0.01625   0.03312   0.03503   0.03597   0.03648
 Alpha virt. eigenvalues --    0.03800   0.04371   0.04492   0.04947   0.05373
 Alpha virt. eigenvalues --    0.05538   0.06152   0.06488   0.06595   0.06647
 Alpha virt. eigenvalues --    0.06986   0.07030   0.07197   0.07451   0.07676
 Alpha virt. eigenvalues --    0.07833   0.08267   0.08543   0.08603   0.08981
 Alpha virt. eigenvalues --    0.09387   0.09560   0.09866   0.10211   0.10312
 Alpha virt. eigenvalues --    0.10360   0.11077   0.11328   0.11453   0.11540
 Alpha virt. eigenvalues --    0.11944   0.12171   0.12747   0.12873   0.13280
 Alpha virt. eigenvalues --    0.13319   0.13707   0.13998   0.14054   0.14172
 Alpha virt. eigenvalues --    0.14658   0.14898   0.15247   0.15364   0.15922
 Alpha virt. eigenvalues --    0.15934   0.16260   0.16430   0.16574   0.16856
 Alpha virt. eigenvalues --    0.16935   0.17324   0.17484   0.17665   0.17905
 Alpha virt. eigenvalues --    0.17963   0.18251   0.18462   0.18580   0.18694
 Alpha virt. eigenvalues --    0.18861   0.18982   0.19153   0.19338   0.19597
 Alpha virt. eigenvalues --    0.19955   0.20150   0.20336   0.20534   0.20781
 Alpha virt. eigenvalues --    0.21003   0.21145   0.21329   0.21420   0.21725
 Alpha virt. eigenvalues --    0.22478   0.22710   0.22735   0.22784   0.23118
 Alpha virt. eigenvalues --    0.23269   0.23449   0.23696   0.23887   0.24052
 Alpha virt. eigenvalues --    0.24290   0.24400   0.24689   0.24825   0.25020
 Alpha virt. eigenvalues --    0.25129   0.25193   0.25363   0.25840   0.26018
 Alpha virt. eigenvalues --    0.26158   0.26343   0.26573   0.26676   0.26827
 Alpha virt. eigenvalues --    0.27126   0.27281   0.27457   0.27726   0.27814
 Alpha virt. eigenvalues --    0.27927   0.28174   0.28323   0.28413   0.28583
 Alpha virt. eigenvalues --    0.28766   0.29107   0.29375   0.29610   0.29723
 Alpha virt. eigenvalues --    0.29822   0.29888   0.30068   0.30229   0.30430
 Alpha virt. eigenvalues --    0.30631   0.30853   0.31075   0.31157   0.31336
 Alpha virt. eigenvalues --    0.31504   0.31666   0.31815   0.31955   0.32071
 Alpha virt. eigenvalues --    0.32347   0.32447   0.32747   0.32857   0.33051
 Alpha virt. eigenvalues --    0.33338   0.33434   0.33464   0.33793   0.34008
 Alpha virt. eigenvalues --    0.34367   0.34696   0.34720   0.34941   0.35097
 Alpha virt. eigenvalues --    0.35317   0.35448   0.35696   0.35734   0.36137
 Alpha virt. eigenvalues --    0.36426   0.36498   0.36742   0.36958   0.37245
 Alpha virt. eigenvalues --    0.37478   0.37580   0.37689   0.37803   0.38119
 Alpha virt. eigenvalues --    0.38361   0.38674   0.39185   0.39397   0.39435
 Alpha virt. eigenvalues --    0.40056   0.40569   0.40736   0.41379   0.41532
 Alpha virt. eigenvalues --    0.42039   0.42224   0.42421   0.42838   0.43134
 Alpha virt. eigenvalues --    0.43491   0.43525   0.43939   0.44231   0.44834
 Alpha virt. eigenvalues --    0.45519   0.45850   0.46575   0.46706   0.47131
 Alpha virt. eigenvalues --    0.48749   0.48829   0.50271   0.50536   0.51077
 Alpha virt. eigenvalues --    0.52396   0.53301   0.53499   0.54051   0.56208
 Alpha virt. eigenvalues --    0.57123   0.57757   0.60361   0.61122   0.61832
 Alpha virt. eigenvalues --    0.62866   0.63033   0.64298   0.65202   0.65477
 Alpha virt. eigenvalues --    0.66494   0.68370   0.69504   0.70520   0.70886
 Alpha virt. eigenvalues --    0.71389   0.71529   0.72265   0.72577   0.72911
 Alpha virt. eigenvalues --    0.73436   0.73744   0.73912   0.74128   0.74644
 Alpha virt. eigenvalues --    0.74985   0.75139   0.75353   0.75741   0.75979
 Alpha virt. eigenvalues --    0.76376   0.76463   0.76985   0.77269   0.77487
 Alpha virt. eigenvalues --    0.77755   0.77910   0.78622   0.78777   0.79001
 Alpha virt. eigenvalues --    0.79512   0.79758   0.80018   0.80379   0.80812
 Alpha virt. eigenvalues --    0.81343   0.81451   0.81722   0.81991   0.82458
 Alpha virt. eigenvalues --    0.82887   0.83689   0.84264   0.84484   0.84856
 Alpha virt. eigenvalues --    0.85302   0.85610   0.85936   0.86114   0.86774
 Alpha virt. eigenvalues --    0.86867   0.87222   0.87646   0.89224   0.89473
 Alpha virt. eigenvalues --    0.89765   0.90244   0.90890   0.91325   0.91848
 Alpha virt. eigenvalues --    0.91976   0.92441   0.93021   0.93143   0.93507
 Alpha virt. eigenvalues --    0.93592   0.94285   0.94859   0.95223   0.95752
 Alpha virt. eigenvalues --    0.95967   0.96131   0.96543   0.96756   0.97119
 Alpha virt. eigenvalues --    0.98356   0.99188   0.99787   0.99915   1.00455
 Alpha virt. eigenvalues --    1.00655   1.01840   1.02091   1.02509   1.03230
 Alpha virt. eigenvalues --    1.04216   1.04852   1.05421   1.05612   1.06112
 Alpha virt. eigenvalues --    1.06194   1.06386   1.06539   1.07495   1.07979
 Alpha virt. eigenvalues --    1.08109   1.08792   1.09780   1.10373   1.10631
 Alpha virt. eigenvalues --    1.11146   1.11775   1.12079   1.12459   1.13112
 Alpha virt. eigenvalues --    1.13410   1.13657   1.14453   1.15363   1.15604
 Alpha virt. eigenvalues --    1.15649   1.16444   1.17515   1.17892   1.18240
 Alpha virt. eigenvalues --    1.18368   1.18961   1.19426   1.20589   1.21309
 Alpha virt. eigenvalues --    1.21549   1.22091   1.22559   1.23213   1.23541
 Alpha virt. eigenvalues --    1.24383   1.25003   1.25265   1.26276   1.27123
 Alpha virt. eigenvalues --    1.27451   1.27511   1.28092   1.28635   1.29681
 Alpha virt. eigenvalues --    1.30500   1.30593   1.31319   1.31365   1.31888
 Alpha virt. eigenvalues --    1.32681   1.33398   1.34093   1.34176   1.34927
 Alpha virt. eigenvalues --    1.35798   1.35875   1.36416   1.37015   1.37487
 Alpha virt. eigenvalues --    1.37921   1.38349   1.39327   1.39496   1.40011
 Alpha virt. eigenvalues --    1.40261   1.40652   1.41287   1.41531   1.42377
 Alpha virt. eigenvalues --    1.42847   1.43036   1.43115   1.43526   1.44028
 Alpha virt. eigenvalues --    1.44577   1.44749   1.45006   1.45745   1.46121
 Alpha virt. eigenvalues --    1.46730   1.47812   1.48089   1.48715   1.48781
 Alpha virt. eigenvalues --    1.49469   1.52522   1.52546   1.53309   1.54142
 Alpha virt. eigenvalues --    1.54956   1.55515   1.58313   1.60179   1.62894
 Alpha virt. eigenvalues --    1.63857   1.65107   1.68113   1.72065   1.72511
 Alpha virt. eigenvalues --    1.73396   1.73881   1.75238   1.75674   1.76742
 Alpha virt. eigenvalues --    1.77221   1.78052   1.78431   1.78837   1.79295
 Alpha virt. eigenvalues --    1.80120   1.80792   1.81567   1.81830   1.82978
 Alpha virt. eigenvalues --    1.84163   1.85628   1.86155   1.87817   1.87857
 Alpha virt. eigenvalues --    1.88103   1.88440   1.88690   1.89645   1.90241
 Alpha virt. eigenvalues --    1.90922   1.91164   1.92082   1.92131   1.92362
 Alpha virt. eigenvalues --    1.93733   1.94731   1.95156   1.95299   1.95665
 Alpha virt. eigenvalues --    1.96259   1.96597   1.96720   1.97367   1.97418
 Alpha virt. eigenvalues --    1.98096   1.98607   1.98987   1.99078   2.00290
 Alpha virt. eigenvalues --    2.00679   2.01093   2.02103   2.02357   2.02409
 Alpha virt. eigenvalues --    2.02674   2.02851   2.03157   2.03543   2.04831
 Alpha virt. eigenvalues --    2.05015   2.05340   2.07092   2.07734   2.07923
 Alpha virt. eigenvalues --    2.08665   2.09120   2.10022   2.10136   2.10736
 Alpha virt. eigenvalues --    2.11433   2.13677   2.17865   2.18440   2.19098
 Alpha virt. eigenvalues --    2.20399   2.22274   2.23515   2.25846   2.26006
 Alpha virt. eigenvalues --    2.27049   2.28028   2.28722   2.28812   2.29236
 Alpha virt. eigenvalues --    2.29852   2.30119   2.30199   2.30458   2.31295
 Alpha virt. eigenvalues --    2.32447   2.33254   2.35005   2.35485   2.36910
 Alpha virt. eigenvalues --    2.38427   2.38617   2.39209   2.39641   2.39847
 Alpha virt. eigenvalues --    2.40022   2.40562   2.41072   2.41727   2.42419
 Alpha virt. eigenvalues --    2.42768   2.42817   2.43371   2.43488   2.43742
 Alpha virt. eigenvalues --    2.44107   2.46002   2.46270   2.47251   2.47495
 Alpha virt. eigenvalues --    2.47816   2.48205   2.49141   2.49486   2.50115
 Alpha virt. eigenvalues --    2.50762   2.51364   2.52149   2.53121   2.53635
 Alpha virt. eigenvalues --    2.54231   2.54813   2.55294   2.55835   2.55838
 Alpha virt. eigenvalues --    2.57590   2.58077   2.58510   2.58639   2.59211
 Alpha virt. eigenvalues --    2.59832   2.59901   2.60071   2.60295   2.60597
 Alpha virt. eigenvalues --    2.60881   2.61028   2.61968   2.62210   2.63020
 Alpha virt. eigenvalues --    2.63507   2.63858   2.64190   2.64347   2.66575
 Alpha virt. eigenvalues --    2.67641   2.69848   2.70148   2.71129   2.71767
 Alpha virt. eigenvalues --    2.73139   2.73697   2.74338   2.76188   2.76734
 Alpha virt. eigenvalues --    2.77087   2.78423   2.79278   2.80366   2.81547
 Alpha virt. eigenvalues --    2.82312   2.83024   2.83251   2.84234   2.86826
 Alpha virt. eigenvalues --    2.87395   2.89563   2.90163   2.94308   2.95004
 Alpha virt. eigenvalues --    2.95291   2.99314   2.99625   3.01530   3.03536
 Alpha virt. eigenvalues --    3.04863   3.06454   3.07263   3.07282   3.08176
 Alpha virt. eigenvalues --    3.10368   3.11984   3.13404   3.19053   3.19605
 Alpha virt. eigenvalues --    3.20425   3.21665   3.23888   3.26706   3.26893
 Alpha virt. eigenvalues --    3.27177   3.27502   3.27780   3.28727   3.29536
 Alpha virt. eigenvalues --    3.30462   3.32696   3.33240   3.36176   3.37521
 Alpha virt. eigenvalues --    3.38310   3.39331   3.39814   3.43832   3.45654
 Alpha virt. eigenvalues --    3.51950   3.53200   3.54186   3.54892   3.66183
 Alpha virt. eigenvalues --    3.80713   3.82027   3.87603   3.89199   3.96375
 Alpha virt. eigenvalues --    4.12811   4.21809   4.24515   4.29734   4.31112
 Alpha virt. eigenvalues --    4.31727   4.33287   4.33607   4.33928   4.34829
 Alpha virt. eigenvalues --    4.37318   4.38646   4.40041   4.40555   4.42907
 Alpha virt. eigenvalues --    4.45683   4.46624   4.48276   4.49363   4.50765
 Alpha virt. eigenvalues --    4.53532   4.53707   4.54036   4.54692   4.57151
 Alpha virt. eigenvalues --    4.57356   4.60099   4.62081   4.63699   4.69050
 Alpha virt. eigenvalues --    4.80604   4.84738   4.86845   4.90812   4.93306
          Condensed to atoms (all electrons):
 Mulliken charges:
               1
     1  C   -0.472501
     2  N    0.294890
     3  C   -0.288214
     4  C    0.217987
     5  C   -0.230927
     6  C   -0.156339
     7  C   -0.258390
     8  C    0.012239
     9  C   -0.500721
    10  C   -0.170973
    11  C   -0.594719
    12  C    0.508975
    13  C    0.492855
    14  C   -0.008320
    15  N   -0.312206
    16  S    0.958205
    17  N   -0.298061
    18  C   -0.308279
    19  C    0.167075
    20  C    0.660491
    21  C   -0.193550
    22  C   -0.520824
    23  C    0.571387
    24  C   -0.291005
    25  N   -0.487827
    26  C   -0.032462
    27  C   -0.068435
    28  C   -0.586502
    29  C   -0.977839
    30  C   -0.019994
    31  C    0.103734
    32  C    0.249645
    33  C   -0.290785
    34  C   -0.095279
    35  C   -0.315969
    36  C    0.166282
    37  H    0.154416
    38  H    0.149218
    39  H    0.147357
    40  H    0.150548
    41  H    0.152401
    42  H    0.152929
    43  H    0.143047
    44  H    0.151725
    45  H    0.169042
    46  H    0.169515
    47  H    0.167507
    48  H    0.150123
    49  H    0.152297
    50  H    0.158420
    51  H    0.153067
    52  H    0.150441
    53  H    0.150426
    54  H    0.147341
    55  H    0.150280
    56  H    0.156258
 Sum of Mulliken charges =  -0.00000
 Mulliken charges with hydrogens summed into heavy atoms:
               1
     1  C   -0.472501
     2  N    0.294890
     3  C   -0.288214
     4  C    0.372403
     5  C   -0.081709
     6  C   -0.008982
     7  C   -0.107842
     8  C    0.164640
     9  C   -0.500721
    10  C   -0.018044
    11  C   -0.451672
    12  C    0.508975
    13  C    0.492855
    14  C   -0.008320
    15  N   -0.312206
    16  S    0.958205
    17  N   -0.298061
    18  C   -0.308279
    19  C    0.167075
    20  C    0.660491
    21  C   -0.041825
    22  C   -0.351782
    23  C    0.571387
    24  C   -0.291005
    25  N   -0.487827
    26  C    0.137053
    27  C    0.099072
    28  C   -0.436379
    29  C   -0.825543
    30  C    0.138426
    31  C    0.256801
    32  C    0.400087
    33  C   -0.140359
    34  C    0.052062
    35  C   -0.165689
    36  C    0.322540
 Electronic spatial extent (au):  <R**2>=          30608.1861
 Charge=             -0.0000 electrons
 Dipole moment (field-independent basis, Debye):
    X=             -6.8497    Y=             -0.6452    Z=             -0.0115  Tot=              6.8800
 Quadrupole moment (field-independent basis, Debye-Ang):
   XX=           -288.2689   YY=           -196.8119   ZZ=           -212.7776
   XY=              6.1632   XZ=              0.3650   YZ=              4.5010
 Traceless Quadrupole moment (field-independent basis, Debye-Ang):
   XX=            -55.6494   YY=             35.8076   ZZ=             19.8419
   XY=              6.1632   XZ=              0.3650   YZ=              4.5010
 Octapole moment (field-independent basis, Debye-Ang**2):
  XXX=          -1317.8952  YYY=             12.1364  ZZZ=             -0.0333  XYY=            -37.7853
  XXY=            110.0482  XXZ=              5.9495  XZZ=              6.0363  YZZ=              6.8896
  YYZ=             -5.9104  XYZ=             35.1074
 Hexadecapole moment (field-independent basis, Debye-Ang**3):
 XXXX=         -52179.1863 YYYY=          -4736.9355 ZZZZ=           -713.1838 XXXY=           1534.9363
 XXXZ=             47.0513 YYYX=             83.4425 YYYZ=             98.3616 ZZZX=             -0.2319
 ZZZY=             13.4760 XXYY=          -6720.7285 XXZZ=          -6359.9061 YYZZ=           -958.3981
 XXYZ=            139.1685 YYXZ=            -45.2467 ZZXY=             18.1160
 N-N= 3.356933131863D+03 E-N=-1.092767964199D+04  KE= 1.793137985062D+03
 Calling FoFJK, ICntrl=  10005127 FMM=F ISym2X=0 I1Cent= 0 IOpClX= 0 NMat=1 NMatS=1 NMatT=0.
 ***** Axes restored to original set *****
 -------------------------------------------------------------------
 Center     Atomic                   Forces (Hartrees/Bohr)
 Number     Number              X              Y              Z
 -------------------------------------------------------------------
      1        6           0.001744833    0.002739916    0.001349363
      2        7          -0.011003784    0.000201903   -0.000332688
      3        6           0.001847439   -0.002985366   -0.001124753
      4        6          -0.002916740   -0.000337339    0.000458808
      5        6          -0.000271742   -0.000007214    0.000717009
      6        6          -0.000910431    0.000724829    0.000442228
      7        6          -0.000085388    0.001400435   -0.001055915
      8        6           0.002082611    0.001384341   -0.000561570
      9        6           0.014037644    0.000447859    0.000020746
     10        6          -0.010443307   -0.009582311   -0.003615399
     11        6           0.015239755   -0.010496498   -0.005390472
     12        6          -0.026951917   -0.001112467    0.001317993
     13        6           0.012801943    0.027899264   -0.000915697
     14        6           0.003084316   -0.000374495    0.003053241
     15        7           0.019126360   -0.011559180    0.000788972
     16       16          -0.003523075    0.030022162    0.000415769
     17        7          -0.012946467   -0.012054545   -0.001519085
     18        6          -0.001556120   -0.000497988   -0.001252842
     19        6          -0.011076383    0.020848554   -0.000219829
     20        6           0.011974170    0.000589903   -0.000475037
     21        6          -0.003111117   -0.003516975    0.000510091
     22        6           0.002046121   -0.000586734    0.000919484
     23        6          -0.002941744   -0.000408362    0.000173822
     24        6           0.002728075    0.000249371    0.000078437
     25        7          -0.001763301   -0.000238357   -0.000028915
     26        6           0.002365781    0.000877443   -0.000709125
     27        6          -0.003888730    0.003025660   -0.001186042
     28        6           0.030287325   -0.022566091    0.003932536
     29        6          -0.027731616   -0.029006076   -0.004708634
     30        6           0.014939331    0.010298210    0.005762694
     31        6          -0.010276116    0.009647341    0.002876153
     32        6           0.002242123   -0.001334557    0.000624583
     33        6          -0.000065735   -0.001600704    0.001115581
     34        6          -0.000993834   -0.000704019   -0.000489006
     35        6          -0.000276186   -0.000028404   -0.000804771
     36        6          -0.003056342    0.000522537   -0.000556021
     37        1           0.000172566    0.000013470    0.000330179
     38        1          -0.000028785    0.000509511   -0.000161316
     39        1          -0.000145695    0.000243762    0.000032633
     40        1          -0.000419635    0.000177735    0.000102269
     41        1           0.000032680   -0.000218975   -0.000276149
     42        1          -0.000017448    0.000290513   -0.000652160
     43        1           0.000393577    0.000895544    0.000636346
     44        1           0.000136329   -0.000057746   -0.000206660
     45        1          -0.000129265   -0.000000863    0.000171678
     46        1          -0.000024411    0.000010783   -0.000138737
     47        1           0.000761566    0.000199954    0.000822207
     48        1           0.001023407   -0.000574656    0.000430992
     49        1          -0.001058684   -0.001596775   -0.000563840
     50        1          -0.000837316   -0.000741006   -0.000985891
     51        1          -0.000109202   -0.000370790    0.000729047
     52        1           0.000053068    0.000231160    0.000307640
     53        1          -0.000431356   -0.000171314   -0.000088601
     54        1          -0.000175822   -0.000242331   -0.000020387
     55        1          -0.000083132   -0.000547646    0.000206432
     56        1           0.000129808    0.000067624   -0.000287390
 -------------------------------------------------------------------
 Cartesian Forces:  Max     0.030287325 RMS     0.007252830

 GradGradGradGradGradGradGradGradGradGradGradGradGradGradGradGradGradGrad
 Berny optimization.
 FormGI is forming the generalized inverse of G from B-inverse, IUseBI=4.
 Internal  Forces:  Max     0.027467012 RMS     0.003954997
 Search for a local minimum.
 Step number   1 out of a maximum of  315
 All quantities printed in internal units (Hartrees-Bohrs-Radians)
 Mixed Optimization -- RFO/linear search
 Second derivative matrix not updated -- first step.
 ITU=  0
     Eigenvalues ---    0.00974   0.01016   0.01361   0.01366   0.01407
     Eigenvalues ---    0.01494   0.01587   0.01604   0.01626   0.01659
     Eigenvalues ---    0.01660   0.01668   0.01748   0.01804   0.01805
     Eigenvalues ---    0.01830   0.01879   0.01968   0.01972   0.01988
     Eigenvalues ---    0.01989   0.02008   0.02009   0.02019   0.02035
     Eigenvalues ---    0.02035   0.02035   0.02038   0.02047   0.02048
     Eigenvalues ---    0.02057   0.02058   0.02068   0.02069   0.02070
     Eigenvalues ---    0.02072   0.02077   0.02078   0.02081   0.02081
     Eigenvalues ---    0.02088   0.02088   0.02095   0.02096   0.02096
     Eigenvalues ---    0.02098   0.02098   0.02100   0.02101   0.02101
     Eigenvalues ---    0.02145   0.02249   0.04712   0.04712   0.15984
     Eigenvalues ---    0.15995   0.15996   0.15998   0.15998   0.15998
     Eigenvalues ---    0.15999   0.15999   0.15999   0.15999   0.15999
     Eigenvalues ---    0.16000   0.16000   0.16000   0.16000   0.16000
     Eigenvalues ---    0.16000   0.16000   0.16000   0.16000   0.21999
     Eigenvalues ---    0.21999   0.22000   0.22000   0.22000   0.22000
     Eigenvalues ---    0.22467   0.22952   0.22964   0.23477   0.23477
     Eigenvalues ---    0.23998   0.23999   0.24475   0.24993   0.24995
     Eigenvalues ---    0.24997   0.24998   0.24999   0.24999   0.24999
     Eigenvalues ---    0.24999   0.25000   0.25000   0.25000   0.25000
     Eigenvalues ---    0.25000   0.34084   0.34396   0.34424   0.34435
     Eigenvalues ---    0.34440   0.34441   0.34441   0.34441   0.34468
     Eigenvalues ---    0.34476   0.34490   0.34506   0.34510   0.34510
     Eigenvalues ---    0.34511   0.34511   0.34512   0.34561   0.34562
     Eigenvalues ---    0.34593   0.34595   0.34692   0.34750   0.38161
[...]
 0107,0.00000291,0.00000006,-0.00000025,0.00000190,0.00000037,-0.000002
 18,0.00002059,0.00000974,-0.00001432,0.00194152,-0.00135108,-0.0016425
 6,0.15458667,0.01118590,0.15090574,-0.00043205,0.00079852,-0.00049856,
 -0.00036300,0.00012284,0.00069148,0.00000410,0.00005403,0.00001911,-0.
 00002085,-0.00002950,-0.00000585,-0.00000345,0.00000119,-0.00000203,0.
 00000328,-0.00000625,0.00000118,-0.00000731,0.00000728,0.00000546,0.00
 001728,-0.00000539,-0.00004581,0.00005134,-0.00007594,0.00004104,-0.00
 000842,0.00002969,-0.00001398,-0.00000843,0.00000641,-0.00000861,0.000
 10618,0.00000133,-0.00000305,-0.00013381,-0.00002777,-0.00000650,0.000
 00711,-0.00008215,-0.00002290,0.00002695,0.00005696,0.00001545,-0.0000
 0133,-0.00001609,-0.00000355,-0.00001857,0.00001331,0.00000089,0.00001
 246,-0.00000300,0.00000518,0.00006608,-0.00005826,-0.00001243,-0.00004
 435,-0.00000392,0.00000045,0.00000852,0.00001940,0.00000227,-0.0000086
 6,0.00000568,-0.00000390,-0.00000047,-0.00000139,0.00000003,0.00000230
 ,0.00000047,0.00000040,-0.00000400,-0.00000008,0.00000002,-0.00000501,
 -0.00000715,0.00000191,0.00001229,-0.00001616,0.00000041,-0.00009541,0
 .00005371,0.00000538,0.00008853,0.00007578,0.00002523,-0.00001236,-0.0
 0002048,0.00000283,0.00002565,-0.00002822,-0.00002675,0.00242964,0.000
 04695,-0.00364212,0.00735420,0.00836208,-0.00082081,-0.12500473,-0.128
 78189,-0.00673682,-0.00790295,-0.02060420,0.00188320,-0.00055659,-0.00
 084197,-0.00572009,0.00000149,0.00000257,0.00000047,-0.00000060,-0.000
 00074,0.00000128,0.00000090,-0.00000066,0.00000125,-0.00000051,0.00000
 330,0.00000083,-0.00000377,-0.00000144,0.00000495,0.00000046,0.0000007
 5,-0.00000177,-0.00000228,-0.00000076,0.00000353,0.00000103,0.00000106
 ,0.00000024,-0.00000070,-0.00000068,-0.00000039,-0.00000125,0.00000030
 ,-0.00000011,0.00000097,-0.00000048,0.00000070,-0.00000188,0.00000034,
 -0.00000171,0.00000294,0.00000083,-0.00000033,-0.00000234,-0.00000681,
 -0.00000615,0.00002277,-0.00001339,-0.00002320,0.00029556,0.00040093,-
 0.00008007,-0.00092164,0.00074580,0.00196945,0.12618620,0.00074381,0.0
 0028248,0.00027865,0.00017459,-0.00012569,-0.00043858,-0.00006716,0.00
 001816,0.00003144,0.00001204,-0.00000628,-0.00002262,-0.00000192,0.000
 00506,0.00000573,-0.00000013,-0.00000190,0.00000177,-0.00001251,0.0000
 1104,-0.00000043,-0.00000401,-0.00000263,0.00002442,0.00006098,0.00001
 665,-0.00006540,0.00000873,-0.00001765,0.00003430,-0.00002564,0.000030
 77,0.00000412,0.00016780,0.00000905,-0.00000186,-0.00023345,-0.0000313
 8,-0.00000727,0.00001890,-0.00013103,-0.00003605,0.00003336,0.00007892
 ,0.00001954,0.00000787,-0.00001874,-0.00000371,-0.00001761,0.00000572,
 -0.00000277,0.00000914,0.00000273,0.00000909,0.00009913,-0.00008743,-0
 .00001883,-0.00006258,-0.00000648,0.00000064,0.00001090,0.00002772,0.0
 0000219,-0.00001171,0.00000826,-0.00000609,-0.00000497,-0.00000270,0.0
 0000016,0.00000870,0.00000109,0.00000121,-0.00001010,-0.00000131,-0.00
 000061,-0.00000604,-0.00001009,0.00000301,0.00001681,-0.00002328,-0.00
 000074,-0.00014742,0.00007153,0.00001060,0.00013881,0.00011951,0.00003
 485,-0.00001764,-0.00004268,-0.00000195,-0.00001474,0.00001686,0.00003
 163,0.00075496,-0.00072837,0.00457246,-0.01284808,-0.01383766,-0.00176
 647,-0.12883142,-0.25278228,0.00853231,0.00057724,0.00104356,0.0015368
 4,-0.00148959,0.00218165,0.00121899,0.00000661,0.00000483,-0.00000033,
 0.00000147,-0.00000221,0.00000083,0.00000063,-0.00000369,0.00000005,0.
 00000276,-0.00000665,-0.00000350,-0.00001483,0.00000753,0.00001372,0.0
 0000250,0.00000362,-0.00000174,-0.00000240,0.00000083,-0.00000223,0.00
 000217,0.00000178,0.00000076,-0.00000139,-0.00000131,-0.00000011,-0.00
 000161,0.00000093,0.00000009,0.00000283,0.00000007,0.00000211,-0.00000
 321,-0.00000016,-0.00000287,0.00000472,-0.00000252,-0.00000169,0.00000
 176,-0.00000275,-0.00000482,0.00000256,-0.00000910,-0.00001243,-0.0006
 5918,-0.00073080,-0.00008553,0.00112211,0.00017893,-0.00114326,0.13961
 620,0.26454339,-0.00055892,0.00022957,-0.00107451,0.00058013,-0.000264
 09,-0.00051807,-0.00007930,-0.00002109,-0.00000764,0.00005294,-0.00001
 183,0.00003178,-0.00000749,-0.00000120,0.00001543,0.00000419,0.0000067
 0,-0.00001783,0.00002191,-0.00002688,0.00001389,0.00001336,0.00002877,
 0.00004483,-0.00003847,0.00011502,-0.00007927,0.00006080,-0.00001766,0
 .00004783,-0.00001769,0.00000591,0.00001336,0.00001749,0.00001136,-0.0
 0000948,-0.00003067,0.00000434,0.00000095,-0.00000232,-0.00002178,-0.0
 0000366,0.00000618,0.00001127,-0.00000134,0.00000657,0.00000338,0.0000
 0220,-0.00000846,-0.00001051,-0.00000466,0.00000566,0.00001062,0.00000
 243,0.00001003,-0.00001304,-0.00000141,-0.00000511,-0.00000118,-0.0000
 0031,0.00000048,0.00000252,-0.00000026,-0.00000090,0.00000072,-0.00000
 068,-0.00000170,-0.00000023,0.00000016,0.00000244,0.00000028,0.0000003
 8,-0.00000235,-0.00000045,-0.00000058,-0.00000043,-0.00000147,0.000000
 20,0.00000153,-0.00000212,-0.00000080,-0.00001923,0.00000267,0.0000012
 7,0.00001511,0.00001251,0.00000194,0.00003985,-0.00001580,0.00000947,-
 0.00007120,0.00000337,0.00007834,-0.00363628,0.00451294,0.00114872,0.0
 1060998,0.01569738,0.00353203,-0.00698736,0.00865986,-0.04543712,-0.00
 927834,-0.01612343,0.00398184,-0.00561714,0.00125506,0.00124036,-0.000
 00920,-0.00000340,-0.00000690,0.00000119,-0.00000135,-0.00000138,-0.00
 000130,0.00000006,-0.00000162,0.00000219,-0.00000527,0.00000027,-0.000
 01843,0.00000861,-0.00001166,-0.00000338,0.00000074,-0.00000549,0.0000
 0087,0.00000034,-0.00000451,0.00000045,0.00000036,0.00000031,-0.000000
 28,-0.00000018,0.00000030,-0.00000024,0.00000029,0.00000031,0.00000149
 ,0.00000032,0.00000121,-0.00000068,-0.00000039,-0.00000045,0.00000152,
 -0.00000135,-0.00000109,0.00000594,-0.00000010,0.00000207,-0.00002027,
 0.00000179,-0.00001857,0.00048958,0.00078767,0.00008155,0.00182746,-0.
 00142769,-0.00138554,0.01104181,-0.01155823,0.03964453,0.00123056,-0.0
 0398383,-0.00281517,0.00027136,-0.00094756,0.00045353,-0.00021147,-0.0
 0018800,0.00009735,0.00001573,-0.00005673,-0.00004182,0.00001376,-0.00
 001849,0.00002000,-0.00000823,-0.00001009,0.00000751,0.00000214,0.0000
 0791,0.00000230,0.00000669,0.00001617,0.00000213,0.00029210,-0.0000438
 1,-0.00001008,-0.00002142,-0.00001269,0.00001335,-0.00000951,0.0000175
 3,-0.00000346,0.00000774,-0.00001994,-0.00000285,-0.00005842,-0.000007
 59,-0.00000087,-0.00001558,-0.00006540,-0.00001491,0.00005281,0.000041
 99,-0.00000514,-0.00002317,0.00001294,0.00000551,-0.00001613,0.0000107
 0,-0.00000101,0.00003027,-0.00000111,0.00000431,0.00003400,-0.00002991
 ,-0.00000537,-0.00003059,-0.00000251,0.00000101,0.00000862,0.00000980,
 0.00000040,-0.00000611,0.00000202,-0.00000086,0.00001027,0.00000231,-0
 .00000033,-0.00001037,-0.00000099,-0.00000021,0.00000699,0.00000114,0.
 00000021,-0.00000763,-0.00000454,0.00000059,0.00001219,-0.00000809,-0.
 00000002,-0.00004132,0.00002773,0.00000217,0.00003947,0.00002868,0.000
 00725,0.00003551,0.00000894,0.00000594,-0.00009836,0.00001702,-0.00002
 253,-0.00101631,-0.00044702,0.00013980,-0.00113659,-0.00272351,-0.0052
 4577,-0.00186204,0.01831960,-0.01450848,-0.06667702,0.04859553,-0.0535
 3523,0.00703514,-0.01281969,0.01067791,-0.00000543,0.00000043,-0.00000
 192,0.00000716,-0.00000531,0.00000546,-0.00000062,-0.00000144,-0.00000
 112,-0.00000063,0.00000070,-0.00000291,0.00000215,-0.00000137,-0.00000
 864,0.00000520,0.00000476,0.00000470,-0.00000257,0.00000086,0.00000018
 ,-0.00000065,-0.00000005,0.00000036,0.00000023,0.00000038,-0.00000037,
 -0.00000024,-0.00000036,0.00000042,-0.00000127,-0.00000020,0.00000007,
 -0.00000024,0.00000100,0.,0.00000033,-0.00000029,0.00000022,-0.0000146
 7,-0.00000855,0.00000792,0.00003895,-0.00000758,0.00001586,-0.00025041
 ,0.00026381,0.00041758,-0.00022988,0.00093319,-0.00072753,-0.00074676,
 0.00085194,0.00207514,0.06425443,-0.00451395,-0.00114396,0.00056445,0.
 00023048,-0.00102207,0.00058741,-0.00032761,0.00005223,0.00018890,0.00
 005453,-0.00012016,-0.00002432,-0.00001184,-0.00000184,0.00002907,0.00
 000648,-0.00000781,0.00000342,-0.00000435,0.00001157,-0.00001345,0.000
 04582,-0.00001639,-0.00000121,0.00041827,-0.00007374,-0.00002372,-0.00
 007135,-0.00002776,-0.00000511,-0.00000169,0.00005091,-0.00002178,0.00
 024509,0.00001545,0.00001418,-0.00037061,-0.00009397,-0.00001849,0.000
 06498,-0.00020025,-0.00005463,0.00003590,0.00012681,0.00001968,-0.0000
 0536,-0.00005251,-0.00000903,0.00001336,0.00004466,0.00000284,-0.00002
 275,-0.00003167,0.00000871,0.00017511,-0.00015195,-0.00003252,-0.00011
 267,-0.00000944,0.00000167,0.00001868,0.00005171,0.00000457,-0.0000209
 1,0.00001560,-0.00001257,-0.00000839,-0.00000527,0.00000030,0.00001174
 ,0.00000201,0.00000203,-0.00001420,-0.00000185,-0.00000137,-0.00001052
 ,-0.00001666,0.00000563,0.00002918,-0.00004585,-0.00000050,-0.00025347
 ,0.00015734,0.00001539,0.00024443,0.00021351,0.00006093,-0.00008366,-0
 .00005228,-0.00003476,0.00004796,0.00005444,-0.00002016,-0.00032265,-0
 .00027567,-0.00067601,-0.00219916,0.00211940,0.00071474,-0.00223056,0.
 00614769,-0.00337994,0.04794553,-0.20160227,0.13263039,0.00773013,-0.0
 1404544,0.01662261,0.00000122,0.00000725,-0.00000756,0.00000483,-0.000
 00910,-0.00000028,0.00000060,-0.00000213,-0.00000144,0.00000427,-0.000
 00762,-0.00000150,-0.00001298,-0.00000238,0.00001070,0.00000476,-0.000
 00690,0.00000320,-0.00000859,-0.00000195,0.00000769,0.00000295,0.00000
 303,0.00000232,-0.00000248,-0.00000189,-0.00000006,-0.00000337,0.00000
 138,0.00000061,-0.00000034,-0.00000073,0.00000243,-0.00000630,0.,-0.00
 000276,0.00000554,-0.00000569,0.00000205,-0.00000700,-0.00000557,-0.00
 000087,0.00002212,-0.00003198,0.00002913,0.00028173,-0.00012931,-0.000
 20880,-0.00015100,0.00019196,-0.00019770,0.00122771,-0.00001841,-0.001
 05440,-0.04912998,0.20975822,-0.00267081,0.00085643,0.00441988,-0.0001
 1270,0.00013850,0.00000316,0.00008673,0.00003158,-0.00002307,0.0000193
 6,0.00003649,0.00003138,0.00000180,0.00000343,-0.00000813,0.00000516,0
 .00001040,-0.00000112,0.00000704,-0.00001344,-0.00000225,-0.00001508,-
 0.00000952,0.00000170,-0.00009554,0.00003515,-0.00002846,-0.00005376,-
 0.00001691,-0.00005449,0.00006254,-0.00005668,-0.00001242,-0.00015095,
 0.00001724,0.00001408,0.00023581,0.00000861,0.00000214,0.00002007,0.00
 017159,0.00004631,-0.00009515,-0.00010413,-0.00002148,0.00001507,-0.00
 000913,-0.00000295,0.00004986,-0.00000238,0.00000550,-0.00006283,-0.00
 001792,-0.00001460,-0.00009747,0.00008991,0.00001722,0.00007170,0.0000
 0769,-0.00000062,-0.00001676,-0.00002608,-0.00000196,0.00001396,-0.000
 00633,0.00000337,-0.00001060,-0.00000159,0.00000026,0.00000712,0.00000
 070,-0.00000026,-0.00000214,-0.00000072,-0.00000028,0.00001253,0.00001
 157,-0.00000175,-0.00002444,0.00002010,-0.00000048,0.00013889,-0.00006
 315,-0.00000692,-0.00013028,-0.00010441,-0.00003475,-0.00003058,0.0000
 2141,-0.00000701,0.00013101,0.00005659,0.00001070,0.00020274,-0.000856
 97,-0.00019897,-0.00546671,0.00049595,0.00160202,-0.00248541,0.0141930
 2,-0.00650842,-0.05387659,0.13259692,-0.15517035,-0.00081630,-0.001143
 49,0.00324156,-0.00000141,-0.00000264,-0.00000283,-0.00000583,-0.00000
 007,-0.00000618,-0.00000135,0.00000069,-0.00000145,0.00000005,-0.00000
 140,0.00000092,-0.00000518,-0.00000723,-0.00000946,-0.00000597,-0.0000
 0873,-0.00000333,0.00000209,-0.00000373,0.00000343,-0.00000060,-0.0000
 0091,-0.00000032,0.00000038,0.00000038,0.00000068,0.00000087,-0.000000
 04,-0.00000017,-0.00000214,0.00000018,-0.00000124,0.00000151,-0.000001
 44,0.00000279,-0.00000339,0.00000149,0.00000205,0.00001734,0.00001374,
 -0.00000067,-0.00004383,0.00001313,0.00000454,0.00040432,-0.00017567,-
 0.00048022,-0.00015935,0.00072307,-0.00045290,0.00187833,-0.00128813,-
 0.00138480,0.06104646,-0.14440731,0.15664084,-0.00321648,-0.00303999,-
 0.00380123,-0.00186256,-0.00005874,0.00242887,0.00014610,0.00025147,-0
 .00017396,-0.00002273,0.00001656,0.00004461,0.00000280,-0.00002534,-0.
 00002195,-0.00001054,-0.00001355,0.00000195,-0.00003521,0.00000707,0.0
 0004504,0.00010848,0.00010875,-0.00010240,0.00094731,-0.00069369,0.000
 56954,-0.00006637,0.00009292,-0.00014610,0.00002319,-0.00004019,-0.000
 00484,-0.00016173,-0.00006565,-0.00004400,0.00013492,0.00002957,0.0000
 0040,-0.00004176,0.00005236,0.00001850,0.00001998,-0.00003402,-0.00002
 232,-0.00002508,0.00002433,0.00000732,0.00000545,0.00001086,0.00000312
 ,0.00002313,-0.00001031,-0.00000483,-0.00004985,0.00005555,0.00001271,
 0.00002117,0.00000210,-0.00000292,0.00000056,-0.00001442,-0.00000102,0
 .00000305,-0.00000525,0.00000465,0.00001427,0.00000421,0.00000113,-0.0
 0001561,-0.00000166,-0.00000171,0.00001375,0.00000184,0.00000108,-0.00
 000161,0.00000473,-0.00000415,-0.00000139,0.00001335,0.00000443,0.0000
 8978,-0.00004421,-0.00000557,-0.00008057,-0.00007423,-0.00002509,-0.00
 001429,0.00004776,0.00012916,-0.00043259,-0.00023839,0.00045548,0.0026
 4541,0.00027759,-0.00252888,0.00003199,0.00021746,0.00071778,0.0023700
 7,-0.00408827,-0.00168416,-0.00753165,0.00018861,-0.00926981,-0.214537
 77,-0.02853625,-0.14332225,-0.00000043,0.00000679,0.00000777,-0.000005
 32,-0.00000138,0.00000143,0.00000127,-0.00000655,0.00000871,-0.0000064
 0,0.00000544,-0.00000561,-0.00009393,-0.00001571,-0.00001133,0.0000103
 7,0.00004095,-0.00000416,-0.00000023,-0.00000547,0.00002016,-0.0000022
 7,-0.00000171,-0.00000069,0.00000163,0.00000130,-0.00000043,0.00000160
 ,-0.00000102,0.00000002,-0.00000314,0.00000019,-0.00000203,0.00000433,
 0.00000130,0.00000168,-0.00000461,0.00000316,0.00000247,-0.00001318,0.
 00001107,-0.00000356,0.00006383,-0.00001844,0.00006044,-0.00009470,-0.
 00025942,-0.00027430,-0.00036267,0.00020608,0.00033455,-0.00041474,0.0
 0002732,-0.00047914,-0.00091016,0.00103433,0.00201039,0.22333516,0.017
 12437,0.00556968,0.01385797,0.00189068,0.00155011,-0.00164161,0.000131
 19,-0.00023051,-0.00004564,-0.00000545,0.00006635,-0.00000741,-0.00000
 461,0.00003815,0.00002336,0.00000237,0.00002042,-0.00001030,0.00001434
 ,-0.00001224,-0.00002320,-0.00008930,-0.00003754,0.00004488,-0.0007506
 5,-0.00025169,0.00005673,0.00005057,-0.00003202,-0.00006484,-0.0001274
 3,0.00001006,0.00002257,-0.00008817,0.00005456,0.00000909,0.00010142,-
 0.00003924,-0.00000665,0.00011695,0.00016152,0.00003943,-0.00015484,-0
 .00009522,0.00000866,0.00002167,-0.00006587,-0.00002316,0.00011369,0.0
 0000795,0.00001607,-0.00012445,-0.00002574,-0.00001656,-0.00003514,0.0
 0002704,0.00000575,0.00002569,0.00000467,-0.00000167,-0.00000919,-0.00
 000785,-0.00000080,0.00000723,-0.00000141,0.00000030,-0.00001027,-0.00
 000237,0.00000009,0.00000712,0.00000083,-0.00000039,-0.00000314,-0.000
 00099,0.00000028,0.00000835,0.00000764,0.00000114,-0.00001198,0.000003
 94,0.00000146,0.00004189,0.00000647,0.00000266,-0.00002038,-0.00002219
 ,-0.00002031,0.00012282,-0.00009669,0.00000009,-0.00060659,0.00006250,
 0.00075861,-0.00030117,-0.00250501,0.00401930,0.00005150,-0.00114697,0
 .00015442,-0.00387859,-0.00312925,0.00231654,-0.02009042,0.00166214,-0
 .01643123,-0.02955399,-0.05579837,-0.01422614,-0.00000743,-0.00001236,
 0.00000089,-0.00000039,0.00000819,-0.00000281,-0.00000274,0.00000497,-
 0.00000363,-0.00000032,0.00000279,0.00000738,0.00005421,0.00003284,0.0
 0001017,0.00000621,-0.00003256,0.00001810,0.00000420,-0.00000098,0.000
 00099,-0.00000045,-0.00000111,0.00000050,-0.00000017,0.00000003,0.0000
 0029,0.00000044,-0.00000007,-0.00000053,-0.00000679,-0.00000105,-0.000
 00480,-0.00000004,0.00000093,0.00000190,-0.00000519,-0.00001026,0.0000
 0017,0.00003895,0.00002017,-0.00002187,-0.00003262,0.00002296,-0.00018
 206,0.00087020,0.00024952,0.00077582,0.00021810,-0.00002750,-0.0002935
 2,-0.00102070,-0.00003752,-0.00078929,0.00136957,0.00019732,-0.0012258
 1,0.03454887,0.05383082,-0.01466258,-0.00420983,-0.00719736,0.00191131
 ,-0.00146690,-0.00138679,-0.00021297,-0.00006743,0.00013522,0.00009990
 ,-0.00006507,0.00000600,0.00000550,-0.00000004,0.00000596,0.00002134,-
 0.00001789,-0.00000343,0.00002683,-0.00000335,-0.00000781,-0.00002682,
 -0.00005247,0.00006784,-0.00027456,0.00093206,-0.00046001,0.00039653,0
 .00001170,0.00015786,-0.00015591,-0.00002188,-0.00002936,0.00017428,0.
 00007378,-0.00002111,-0.00020618,-0.00005400,-0.00002200,0.00000795,-0
 .00015125,-0.00003697,-0.00000004,0.00012054,0.00001042,0.00004544,-0.
 00002982,-0.00000507,-0.00006036,-0.00003563,-0.00001233,0.00001369,0.
 00005299,0.00002134,0.00011349,-0.00015003,-0.00002977,-0.00006240,-0.
 00000715,0.00000085,0.00000582,0.00003631,0.00000261,-0.00001164,0.000
 01239,-0.00000973,-0.00002279,-0.00000624,-0.00000073,0.00002760,0.000
 00326,0.00000287,-0.00002626,-0.00000332,-0.00000196,-0.00000290,-0.00
 001465,0.00000622,0.00001342,-0.00003169,-0.00000444,-0.00021159,0.000
 09733,0.00001786,0.00016049,0.00014121,0.00003698,0.00037940,-0.000079
 29,0.00011035,-0.00010561,0.00006665,0.00024219,-0.00207599,0.00454487
 ,0.00143319,0.00079731,0.00012682,-0.00039171,-0.00206808,0.00198223,0
 .00415885,0.00161207,0.00138437,0.00400272,-0.14208318,-0.01426521,-0.
 15097909,-0.00000867,0.00000091,-0.00002283,0.00000190,-0.00000732,-0.
 00000273,-0.00000064,-0.00000024,-0.00000702,0.00000897,-0.00001009,-0
 .00000176,0.00000375,0.00000344,-0.00003084,-0.00002189,-0.00003304,-0
 .00002977,-0.00000072,-0.00001301,-0.00001498,0.00000466,0.00000353,0.
 00000134,-0.00000313,-0.00000281,0.00000060,-0.00000370,0.00000217,0.0
 0000023,0.00000822,0.00000031,0.00000599,-0.00000862,-0.00000309,-0.00
 000433,0.00001803,0.00000080,-0.00000488,0.00005033,-0.00003226,-0.000
 00949,-0.00017254,-0.00006574,-0.00050073,-0.00085927,-0.00008163,-0.0
 0025126,0.00036207,-0.00028789,-0.00047626,0.00008273,0.00010675,0.000
 08168,0.00194094,-0.00132280,-0.00161020,0.15505506,0.01288864,0.15305
 760\\-0.00000208,-0.00000338,-0.00000154,0.00000446,0.00000012,0.00000
 056,-0.00000049,-0.00000052,0.00000219,-0.00000184,-0.00000325,0.00000
 308,0.00000195,0.00000084,-0.00000166,-0.00000185,0.00000130,-0.000000
 49,-0.00000047,0.00000015,0.00000133,0.00000326,0.00000114,-0.00000115
 ,-0.00000512,-0.00000864,-0.00000561,-0.00000466,0.00000008,-0.0000008
 1,0.00001936,-0.00001131,-0.00000412,-0.00001936,0.00001161,0.00000657
 ,-0.00001735,-0.00000202,-0.00001092,0.00002887,0.00001796,0.00001360,
 -0.00000279,-0.00000586,-0.00000367,-0.00000705,-0.00004168,-0.0000069
 3,0.00000007,0.00000746,0.00000066,-0.00002072,0.00000500,-0.00000470,
 0.00001189,-0.00000229,0.00000466,0.00000849,0.00001149,-0.00000267,-0
 .00000278,-0.00000628,0.00000297,-0.00000198,0.00000271,-0.00000307,-0
 .00000204,-0.00000542,0.00000220,0.00000541,-0.00000046,0.00000007,-0.
 00000247,-0.00000036,0.00000020,0.00000916,0.00000664,0.00000139,-0.00
 000215,0.00000270,-0.00000031,-0.00002189,-0.00000079,0.00000383,0.000
 02300,-0.00000143,-0.00000221,0.00001614,0.00000572,0.00000390,-0.0000
 1102,0.00000986,0.00000378,0.00000418,0.00000037,0.00000133,-0.0000011
 5,-0.00000089,-0.00000134,-0.00000235,-0.00000122,0.00000014,0.0000022
 4,0.00000008,0.00000185,-0.00000315,0.00000433,-0.00000196,0.00000223,
 0.00000027,-0.00000074,0.00000046,-0.00000050,-0.00000024,0.00000015,-
 0.00000032,-0.00000002,-0.00000007,-0.00000034,-0.00000015,-0.00000071
 ,-0.00000043,0.00000078,0.00000054,0.00000520,-0.00000096,-0.00000342,
 0.00000622,0.00000285,0.00000500,0.00000187,-0.00000319,-0.00000044,0.
 00000034,0.00000045,0.00000107,-0.00000039,-0.00000167,0.00000090,0.00
 000208,0.00000151,0.00000160,-0.00000239,0.00000159,-0.00000756,-0.000
 00038,-0.00000028,-0.00000367,-0.00000193,-0.00000145,-0.00000237,-0.0
 0000432,0.00000042,-0.00000069,0.00000044,-0.00000092,-0.00000006,0.00
 000045,0.00000019,0.00000014,0.00000047,0.00000013,0.00000058,0.000000
 58,0.00000042,0.00000260,-0.00000069,0.00000016\\\@


 QED = W**5 (WHICH WAS WHAT WE WANTED)
 Job cpu time:      14 days 23 hours  5 minutes 47.3 seconds.
 Elapsed time:       0 days 23 hours 58 minutes 52.6 seconds.
 File lengths (MBytes):  RWF=  14825 Int=      0 D2E=      0 Chk=    122 Scr=      1
 Normal termination of Gaussian 16 at Thu May  7 16:10:31 2026.
